Program Version,EnergyPlus, Version 9.3.0-baff08990c, YMD=2021.11.10 02:04
1,5,Environment Title[],Latitude[deg],Longitude[deg],Time Zone[],Elevation[m]
2,8,Day of Simulation[],Month[],Day of Month[],DST Indicator[1=yes 0=no],Hour[],StartMinute[],EndMinute[],DayType
3,5,Cumulative Day of Simulation[],Month[],Day of Month[],DST Indicator[1=yes 0=no],DayType  ! When Daily Report Variables Requested
4,2,Cumulative Days of Simulation[],Month[]  ! When Monthly Report Variables Requested
5,1,Cumulative Days of Simulation[] ! When Run Period Report Variables Requested
6,1,Calendar Year of Simulation[] ! When Annual Report Variables Requested
675,1,CORE_TOP,Zone Mean Air Temperature [C] !Hourly
676,1,PERIMETER_TOP_ZN_3,Zone Mean Air Temperature [C] !Hourly
677,1,PERIMETER_TOP_ZN_2,Zone Mean Air Temperature [C] !Hourly
678,1,PERIMETER_TOP_ZN_1,Zone Mean Air Temperature [C] !Hourly
679,1,PERIMETER_TOP_ZN_4,Zone Mean Air Temperature [C] !Hourly
1741,1,CORE_TOP_LOTEMP,Zone Radiant HVAC Pump Electric Power [W] !Hourly
1747,1,PERI1_TOP_LOTEMP,Zone Radiant HVAC Pump Electric Power [W] !Hourly
1753,1,PERI2_TOP_LOTEMP,Zone Radiant HVAC Pump Electric Power [W] !Hourly
1755,1,PERI3_TOP_LOTEMP,Zone Radiant HVAC Heating Rate [W] !Hourly
1760,1,PERI3_TOP_LOTEMP,Zone Radiant HVAC Pump Electric Power [W] !Hourly
1766,1,PERI4_TOP_LOTEMP,Zone Radiant HVAC Pump Electric Power [W] !Hourly
1999,1,BOILER_RADSYS,Boiler Electric Power [W] !Hourly
2041,1,HOT WATER LOOP HW SUPPLY PUMP2,Pump Electric Power [W] !Hourly
End of Data Dictionary
1,RUNPERIOD 1,  39.83,-104.65,  -7.00,1650.00
2,1, 1,21, 0, 1, 0.00,60.00,Holiday
675,22.013123698276848
676,21.295606490023848
677,21.04767939581141
678,21.358230897724629
679,21.087025678061058
1741,0.0
1747,0.0
1753,0.0
1755,0.0
1760,0.0
1766,0.0
1999,0.0
2041,0.0
2,1, 1,21, 0, 2, 0.00,60.00,Holiday
675,21.89179516522424
676,21.03696238868718
677,20.704074383099866
678,20.9662624704014
679,20.699410211908338
1741,0.0
1747,0.0
1753,0.0
1755,0.0
1760,0.0
1766,0.0
1999,0.0
2041,0.0
2,1, 1,21, 0, 3, 0.00,60.00,Holiday
675,21.743320602848688
676,20.761548063811465
677,20.293867914396534
678,20.553732149556518
679,20.30047420154582
1741,0.0
1747,0.0
1753,0.0
1755,0.0
1760,0.0
1766,0.0
1999,0.0
2041,0.0
2,1, 1,21, 0, 4, 0.00,60.00,Holiday
675,21.60384153521314
676,20.504981064310493
677,19.91865604281317
678,20.163928860751179
679,19.948844002328554
1741,0.0
1747,0.0
1753,0.0
1755,0.0
1760,0.0
1766,0.0
1999,0.0
2041,0.0
2,1, 1,21, 0, 5, 0.00,60.00,Holiday
675,21.47605557513426
676,20.254133949563209
677,19.54974388363204
678,19.781907985635209
679,19.584966706256585
1741,0.0
1747,0.0
1753,0.0
1755,0.0
1760,0.0
1766,0.0
1999,0.0
2041,0.0
2,1, 1,21, 0, 6, 0.00,60.00,Holiday
675,21.354691135204229
676,20.122659198158936
677,19.326633568280469
678,19.521224784075977
679,19.3145086921998
1741,0.0
1747,0.0
1753,0.0
1755,0.0
1760,0.0
1766,0.0
1999,0.0
2041,0.0
2,1, 1,21, 0, 7, 0.00,60.00,Holiday
675,21.32703327506551
676,20.14754570845592
677,19.258887278069094
678,19.43003606182692
679,19.224572984221138
1741,0.0
1747,0.0
1753,0.0
1755,0.0
1760,0.0
1766,0.0
1999,0.0
2041,0.0
2,1, 1,21, 0, 8, 0.00,60.00,Holiday
675,21.38258935102915
676,20.440967175655005
677,19.991243258626633
678,19.62530738903511
679,19.374638221583838
1741,100.0
1747,120.0
1753,100.0
1755,8733.540230631037
1760,60.0
1766,100.0
1999,149325.5039417273
2041,638.7561543309754
2,1, 1,21, 0, 9, 0.00,60.00,Holiday
675,21.789924509765858
676,21.050627209513679
677,22.513713270184227
678,21.28589804069042
679,20.1865361790914
1741,0.0
1747,0.0
1753,0.0
1755,0.0
1760,0.0
1766,0.0
1999,0.0
2041,0.0
2,1, 1,21, 0,10, 0.00,60.00,Holiday
675,22.13967540739554
676,21.597650300321346
677,23.51180149412244
678,23.120990137645199
679,20.79010978650522
1741,0.0
1747,0.0
1753,0.0
1755,0.0
1760,0.0
1766,0.0
1999,0.0
2041,0.0
2,1, 1,21, 0,11, 0.00,60.00,Holiday
675,22.47370422621484
676,22.179507165721465
677,23.10276192919025
678,25.063848518877614
679,21.42247104242283
1741,0.0
1747,0.0
1753,0.0
1755,0.0
1760,0.0
1766,0.0
1999,0.0
2041,0.0
2,1, 1,21, 0,12, 0.00,60.00,Holiday
675,22.83562381370252
676,22.692931692257493
677,23.156638796933973
678,26.888982754136074
679,22.030568775234884
1741,0.0
1747,0.0
1753,0.0
1755,0.0
1760,0.0
1766,0.0
1999,0.0
2041,0.0
2,1, 1,21, 0,13, 0.00,60.00,Holiday
675,23.143912036218646
676,23.107086267868035
677,23.613011772087199
678,28.135725046684997
679,22.542493149616925
1741,0.0
1747,0.0
1753,0.0
1755,0.0
1760,0.0
1766,0.0
1999,0.0
2041,0.0
2,1, 1,21, 0,14, 0.00,60.00,Holiday
675,23.37345031163442
676,23.46669037404326
677,23.917036558978269
678,28.53622471522477
679,22.864964729368489
1741,0.0
1747,0.0
1753,0.0
1755,0.0
1760,0.0
1766,0.0
1999,0.0
2041,0.0
2,1, 1,21, 0,15, 0.00,60.00,Holiday
675,23.533816551619425
676,23.609279601793405
677,24.006311346910999
678,28.738724475105025
679,24.16205979163832
1741,0.0
1747,0.0
1753,0.0
1755,0.0
1760,0.0
1766,0.0
1999,0.0
2041,0.0
2,1, 1,21, 0,16, 0.00,60.00,Holiday
675,23.659692733494347
676,23.635266754886815
677,23.939040597828066
678,28.36096148785594
679,25.589584229829673
1741,0.0
1747,0.0
1753,0.0
1755,0.0
1760,0.0
1766,0.0
1999,0.0
2041,0.0
2,1, 1,21, 0,17, 0.00,60.00,Holiday
675,23.707586487297868
676,23.43030405583548
677,23.586318018376337
678,26.90866433424086
679,25.099466403524337
1741,0.0
1747,0.0
1753,0.0
1755,0.0
1760,0.0
1766,0.0
1999,0.0
2041,0.0
2,1, 1,21, 0,18, 0.00,60.00,Holiday
675,23.51943275669785
676,22.911425343346246
677,22.939007387445469
678,25.511442372249243
679,23.448553302890635
1741,0.0
1747,0.0
1753,0.0
1755,0.0
1760,0.0
1766,0.0
1999,0.0
2041,0.0
2,1, 1,21, 0,19, 0.00,60.00,Holiday
675,23.157389803029788
676,22.403258481995729
677,22.328507223132286
678,24.4876132113744
679,22.52086708612081
1741,90.0
1747,120.0
1753,0.0
1755,0.0
1760,0.0
1766,0.0
1999,0.0
2041,0.0
2,1, 1,21, 0,20, 0.00,60.00,Holiday
675,22.746921643329956
676,21.968459249917726
677,21.79620134746949
678,23.46287019471717
679,21.887195837319113
1741,0.0
1747,0.0
1753,0.0
1755,0.0
1760,0.0
1766,0.0
1999,0.0
2041,0.0
2,1, 1,21, 0,21, 0.00,60.00,Holiday
675,22.496793929783025
676,21.935620851953027
677,21.623271059433088
678,22.82385644360705
679,21.680596663234664
1741,0.0
1747,36.0
1753,100.0
1755,9207.283613170734
1760,60.0
1766,100.0
1999,50249.36077424548
2041,638.7561543309754
2,1, 1,21, 0,22, 0.00,60.00,Holiday
675,22.32143516550655
676,21.89036674182153
677,21.73583631527207
678,22.301456140143409
679,21.810972732098248
1741,0.0
1747,0.0
1753,0.0
1755,0.0
1760,0.0
1766,0.0
1999,0.0
2041,0.0
2,1, 1,21, 0,23, 0.00,60.00,Holiday
675,22.189948916306486
676,21.654901699703495
677,21.52289693035123
678,21.94832654524292
679,21.595682452040536
1741,0.0
1747,0.0
1753,0.0
1755,0.0
1760,0.0
1766,0.0
1999,0.0
2041,0.0
2,1, 1,21, 0,24, 0.00,60.00,Holiday
675,22.093303823555269
676,21.46892723467691
677,21.28844845712656
678,21.65140842121424
679,21.356204950972729
1741,0.0
1747,0.0
1753,0.0
1755,0.0
1760,0.0
1766,0.0
1999,0.0
2041,0.0
2,2, 1,22, 0, 1, 0.00,60.00,Tuesday
675,22.09189975875663
676,21.48812507517917
677,21.29828828511875
678,21.548855962967719
679,21.36354938657019
1741,0.0
1747,120.0
1753,100.0
1755,6203.169449256803
1760,60.0
1766,100.0
1999,47693.01737594341
2041,638.7561543309754
2,2, 1,22, 0, 2, 0.00,60.00,Tuesday
675,22.06394923903927
676,21.586861463666354
677,21.596208468376064
678,21.625447853675003
679,21.665776686782004
1741,0.0
1747,120.0
1753,100.0
1755,5624.322452878319
1760,60.0
1766,100.0
1999,38404.593795595
2041,638.7561543309754
2,2, 1,22, 0, 3, 0.00,60.00,Tuesday
675,22.030868217948084
676,21.631294953353199
677,21.83333087143356
678,21.716143783830839
679,21.899398878142646
1741,0.0
1747,120.0
1753,100.0
1755,5374.572546746507
1760,60.0
1766,100.0
1999,31650.45870276743
2041,638.7561543309754
2,2, 1,22, 0, 4, 0.00,60.00,Tuesday
675,22.003386541429035
676,21.57545687495026
677,21.901121188763069
678,21.711946223407496
679,21.96034515253097
1741,40.0
1747,120.0
1753,100.0
1755,5493.039336491079
1760,60.0
1766,100.0
1999,48771.923179740304
2041,638.7561543309754
2,2, 1,22, 0, 5, 0.00,60.00,Tuesday
675,22.026821360644726
676,21.503612513952885
677,21.9166515753122
678,21.683906973457149
679,21.95862525031471
1741,0.0
1747,120.0
1753,100.0
1755,5712.42315823984
1760,60.0
1766,100.0
1999,28605.862888711796
2041,638.7561543309754
2,2, 1,22, 0, 6, 0.00,60.00,Tuesday
675,22.017526661079655
676,21.56644590078617
677,22.027740256515349
678,21.785546443856118
679,22.013818810918815
1741,0.0
1747,120.0
1753,15.0
1755,5471.364832462825
1760,60.0
1766,20.0
1999,17140.22757582154
2041,638.7561543309754
2,2, 1,22, 0, 7, 0.00,60.00,Tuesday
675,22.129004117518375
676,21.986535496649155
677,22.3755457146884
678,22.2369118098933
679,22.375387440444837
1741,0.0
1747,12.0
1753,0.0
1755,1584.1856323562186
1760,21.0
1766,5.0
1999,3087.7495384087117
2041,223.56465401584146
2,2, 1,22, 0, 8, 0.00,60.00,Tuesday
675,19.468540180071618
676,19.51181404737691
677,19.150998001226037
678,19.509457166028338
679,18.56218208868874
1741,98.33333333333333
1747,118.0
1753,98.33333333333333
1755,12016.83228215645
1760,60.0
1766,98.33333333333333
1999,162031.9844486143
2041,638.7561543309754
2,2, 1,22, 0, 9, 0.00,60.00,Tuesday
675,20.07881493002982
676,19.898918729277939
677,20.635309720868969
678,20.695167902878713
679,19.04477279854678
1741,100.0
1747,120.0
1753,100.0
1755,10972.706826848818
1760,60.0
1766,100.0
1999,168865.7305863498
2041,638.7561543309754
2,2, 1,22, 0,10, 0.00,60.00,Tuesday
675,20.617944032724929
676,20.292529441681667
677,21.14912543691215
678,21.96654988354684
679,19.66758488304013
1741,100.0
1747,66.0
1753,100.0
1755,9506.37886556963
1760,60.0
1766,100.0
1999,107743.18360032344
2041,638.7561543309754
2,2, 1,22, 0,11, 0.00,60.00,Tuesday
675,21.083104400543538
676,20.715115520712208
677,20.974163078997625
678,23.056990980789885
679,20.273390832330838
1741,100.0
1747,54.0
1753,100.0
1755,7995.087282249685
1760,60.0
1766,100.0
1999,83238.69003337765
2041,638.7561543309754
2,2, 1,22, 0,12, 0.00,60.00,Tuesday
675,22.00426120956671
676,21.6138864676592
677,21.731507062315154
678,24.366650081325998
679,21.45364648349408
1741,55.0
1747,120.0
1753,80.0
1755,4888.1649533436079
1760,60.0
1766,100.0
1999,32594.906104083675
2041,638.7561543309754
2,2, 1,22, 0,13, 0.00,60.00,Tuesday
675,22.358881914223266
676,21.982177809141125
677,22.09497128292844
678,24.926254294896976
679,21.915151273774108
1741,0.0
1747,120.0
1753,0.0
1755,2971.6733985394469
1760,48.0
1766,100.0
1999,4137.989695128184
2041,638.7561543309754
2,2, 1,22, 0,14, 0.00,60.00,Tuesday
675,22.55776565015648
676,22.128268491919088
677,22.0986690737427
678,24.981223352606518
679,21.982492649561374
1741,0.0
1747,120.0
1753,0.0
1755,0.0
1760,0.0
1766,75.0
1999,784.2686514152574
2041,479.0671157482317
2,2, 1,22, 0,15, 0.00,60.00,Tuesday
675,22.639868321317548
676,22.140379389605699
677,22.033956619385419
678,24.68867321984221
679,22.65422705584212
1741,0.0
1747,120.0
1753,10.0
1755,0.0
1760,0.0
1766,10.0
1999,270.4748116045123
2041,63.875615433097568
2,2, 1,22, 0,16, 0.00,60.00,Tuesday
675,22.698365526318257
676,22.146893075129819
677,21.977288552658764
678,24.13998135552941
679,23.22916568339487
1741,0.0
1747,120.0
1753,100.0
1755,0.0
1760,0.0
1766,100.0
1999,3135.7307698104248
2041,638.7561543309754
2,2, 1,22, 0,17, 0.00,60.00,Tuesday
675,22.426592303993915
676,21.787146426443504
677,21.466752405401726
678,22.747069901173334
679,22.395646018729737
1741,5.0
1747,72.0
1753,95.0
1755,3544.6576929247205
1760,39.0
1766,55.0
1999,15463.969302611838
2041,606.8183466144267
2,2, 1,22, 0,18, 0.00,60.00,Tuesday
675,21.25936569396112
676,20.659298966916734
677,20.171883567987977
678,20.65760389319299
679,19.991330085811108
1741,100.0
1747,120.0
1753,100.0
1755,8505.9121812571
1760,60.0
1766,100.0
1999,113597.72562862744
2041,638.7561543309754
2,2, 1,22, 0,19, 0.00,60.00,Tuesday
675,20.900655285303747
676,20.177948244458994
677,19.85754454944162
678,19.997281425208116
679,19.46751331740453
1741,100.0
1747,120.0
1753,100.0
1755,9972.940293766687
1760,60.0
1766,100.0
1999,127204.19135711363
2041,638.7561543309754
2,2, 1,22, 0,20, 0.00,60.00,Tuesday
675,20.850622016467129
676,19.968372013488588
677,19.81565821266958
678,19.848773847570578
679,19.47016703011921
1741,100.0
1747,120.0
1753,100.0
1755,10564.850867353536
1760,60.0
1766,100.0
1999,123072.83706330069
2041,638.7561543309754
2,2, 1,22, 0,21, 0.00,60.00,Tuesday
675,20.866927251721813
676,19.84700223408919
677,19.83110609998714
678,19.847019141263297
679,19.560089080633597
1741,100.0
1747,120.0
1753,100.0
1755,10880.001261709956
1760,60.0
1766,100.0
1999,116173.89709551816
2041,638.7561543309754
2,2, 1,22, 0,22, 0.00,60.00,Tuesday
675,23.867647917576698
676,22.26771601821242
677,23.996805079222406
678,22.865590076603426
679,23.88438454751507
1741,95.0
1747,84.0
1753,95.0
1755,1282.47857464651
1760,14.0
1766,95.0
1999,7888.841563189155
2041,149.04310267722765
2,2, 1,22, 0,23, 0.00,60.00,Tuesday
675,24.390504687862426
676,21.889745452837525
677,23.336954876734077
678,22.51980729418942
679,23.22161094522532
1741,100.0
1747,12.0
1753,85.0
1755,3595.736518261823
1760,45.0
1766,70.0
1999,5562.2078079090429
2041,479.0671157482317
2,2, 1,22, 0,24, 0.00,60.00,Tuesday
675,24.04750089584213
676,21.625988353879778
677,22.492516160637686
678,22.085416599573834
679,22.468373152275026
1741,100.0
1747,24.0
1753,0.0
1755,5361.987528863594
1760,60.0
1766,0.0
1999,6853.414448044135
2041,638.7561543309754
2,3, 1,23, 0, 1, 0.00,60.00,Wednesday
675,23.556384770812877
676,21.48407054077744
677,22.150368257994289
678,21.82181778056484
679,22.132161034839507
1741,0.0
1747,0.0
1753,0.0
1755,0.0
1760,0.0
1766,0.0
1999,0.0
2041,0.0
2,3, 1,23, 0, 2, 0.00,60.00,Wednesday
675,23.36610799218716
676,21.26464176332819
677,21.857172655762729
678,21.547738599211919
679,21.824632982706274
1741,0.0
1747,0.0
1753,0.0
1755,0.0
1760,0.0
1766,0.0
1999,0.0
2041,0.0
2,3, 1,23, 0, 3, 0.00,60.00,Wednesday
675,23.24233911282598
676,21.05918184751822
677,21.557489641089768
678,21.255239278965193
679,21.510274000964516
1741,0.0
1747,0.0
1753,0.0
1755,0.0
1760,0.0
1766,0.0
1999,0.0
2041,0.0
2,3, 1,23, 0, 4, 0.00,60.00,Wednesday
675,23.14009784969874
676,21.064443159084289
677,21.46222564368665
678,21.167655493975344
679,21.40751708882763
1741,0.0
1747,0.0
1753,0.0
1755,0.0
1760,0.0
1766,0.0
1999,0.0
2041,0.0
2,3, 1,23, 0, 5, 0.00,60.00,Wednesday
675,23.06053865822783
676,20.97750654751587
677,21.260982690971546
678,20.974667927918245
679,21.1974990578248
1741,0.0
1747,0.0
1753,0.0
1755,0.0
1760,0.0
1766,0.0
1999,0.0
2041,0.0
2,3, 1,23, 0, 6, 0.00,60.00,Wednesday
675,22.99455716059323
676,20.870892554320215
677,21.033349819620985
678,20.754511764466338
679,20.960890160498879
1741,0.0
1747,0.0
1753,0.0
1755,0.0
1760,0.0
1766,0.0
1999,0.0
2041,0.0
2,3, 1,23, 0, 7, 0.00,60.00,Wednesday
675,23.00018723988883
676,21.646742123932989
677,21.68087955897425
678,21.32232254647072
679,21.61374616924116
1741,60.0
1747,120.0
1753,100.0
1755,9027.053798585537
1760,60.0
1766,100.0
1999,65078.43025633241
2041,638.7561543309754
2,3, 1,23, 0, 8, 0.00,60.00,Wednesday
675,20.03741125708372
676,19.52995219925213
677,18.93842651329129
678,19.120954473358549
679,18.46161118948218
1741,95.0
1747,120.0
1753,98.33333333333333
1755,13009.156114848472
1760,60.0
1766,100.0
1999,165990.6922603447
2041,638.7561543309754
2,3, 1,23, 0, 9, 0.00,60.00,Wednesday
675,20.55407757175159
676,19.91165517372034
677,20.335536743968228
678,20.290466987685414
679,18.945845720762315
1741,100.0
1747,120.0
1753,100.0
1755,11939.442361317313
1760,60.0
1766,100.0
1999,169741.19764818677
2041,638.7561543309754
2,3, 1,23, 0,10, 0.00,60.00,Wednesday
675,21.047769638905856
676,20.37686700927876
677,20.790475668415266
678,21.249594309519116
679,19.525121165893986
1741,100.0
1747,120.0
1753,100.0
1755,6408.8651543684259
1760,60.0
1766,100.0
1999,101746.29220225892
2041,638.7561543309754
2,3, 1,23, 0,11, 0.00,60.00,Wednesday
675,21.474057825603027
676,20.84203078001543
677,20.929033247608215
678,22.07654749764546
679,20.04214847577249
1741,100.0
1747,66.0
1753,100.0
1755,4140.598929852873
1760,60.0
1766,100.0
1999,45664.858743873265
2041,638.7561543309754
2,3, 1,23, 0,12, 0.00,60.00,Wednesday
675,22.305926699998094
676,21.682341077488993
677,21.753239224390148
678,23.121010931940629
679,21.12624147217459
1741,0.0
1747,0.0
1753,0.0
1755,0.0
1760,0.0
1766,0.0
1999,0.0
2041,0.0
2,3, 1,23, 0,13, 0.00,60.00,Wednesday
675,22.400243024299777
676,21.844401767046479
677,21.842258237267573
678,23.79904519198675
679,21.33795962283407
1741,0.0
1747,120.0
1753,100.0
1755,4346.431522167082
1760,60.0
1766,100.0
1999,13082.883632425906
2041,638.7561543309754
2,3, 1,23, 0,14, 0.00,60.00,Wednesday
675,22.58607074188707
676,22.05774857677513
677,21.90895835920372
678,24.501907252462794
679,21.493424153124054
1741,0.0
1747,0.0
1753,0.0
1755,0.0
1760,0.0
1766,0.0
1999,0.0
2041,0.0
2,3, 1,23, 0,15, 0.00,60.00,Wednesday
675,22.662288187513697
676,22.108688246534823
677,21.863512460332385
678,24.419837826734786
679,21.96915773487347
1741,0.0
1747,0.0
1753,0.0
1755,0.0
1760,0.0
1766,0.0
1999,0.0
2041,0.0
2,3, 1,23, 0,16, 0.00,60.00,Wednesday
675,22.673157552059889
676,22.094416321650518
677,21.748549492203453
678,23.730645390408399
679,22.03986781132582
1741,0.0
1747,0.0
1753,0.0
1755,0.0
1760,0.0
1766,0.0
1999,0.0
2041,0.0
2,3, 1,23, 0,17, 0.00,60.00,Wednesday
675,22.61533796515318
676,21.933708373619927
677,21.507002548041887
678,23.023652358271386
679,21.625586025251275
1741,0.0
1747,0.0
1753,0.0
1755,0.0
1760,0.0
1766,0.0
1999,0.0
2041,0.0
2,3, 1,23, 0,18, 0.00,60.00,Wednesday
675,21.433908845781489
676,20.72249048419712
677,20.027485321393688
678,21.447969731228743
679,19.937683278882706
1741,91.66666666666666
1747,96.0
1753,100.0
1755,5122.529468512349
1760,60.0
1766,100.0
1999,58352.3731330003
2041,638.7561543309754
2,3, 1,23, 0,19, 0.00,60.00,Wednesday
675,20.898726066058509
676,20.085898278003414
677,19.35577525908653
678,20.64046870636096
679,19.201789068327704
1741,100.0
1747,120.0
1753,100.0
1755,4786.163098954692
1760,60.0
1766,100.0
1999,59142.43735320876
2041,638.7561543309754
2,3, 1,23, 0,20, 0.00,60.00,Wednesday
675,20.75821090519914
676,19.809690683687849
677,19.08739017354199
678,20.269771812050214
679,18.915346342492695
1741,100.0
1747,120.0
1753,100.0
1755,4394.060885855755
1760,60.0
1766,100.0
1999,52632.79040850619
2041,638.7561543309754
2,3, 1,23, 0,21, 0.00,60.00,Wednesday
675,20.658568981761769
676,19.59940237778629
677,18.874262337124365
678,19.98680447277756
679,18.711023459672135
1741,100.0
1747,120.0
1753,100.0
1755,4843.313711718742
1760,60.0
1766,100.0
1999,57270.42211109741
2041,638.7561543309754
2,3, 1,23, 0,22, 0.00,60.00,Wednesday
675,23.53130710530801
676,21.965470367066904
677,22.524663636124733
678,22.815182504222038
679,22.504710302406449
1741,0.0
1747,0.0
1753,0.0
1755,0.0
1760,0.0
1766,0.0
1999,0.0
2041,0.0
2,3, 1,23, 0,23, 0.00,60.00,Wednesday
675,24.24568112930336
676,22.0404944062963
677,22.752236105922117
678,22.893370119259438
679,22.756788266772639
1741,0.0
1747,0.0
1753,0.0
1755,0.0
1760,0.0
1766,0.0
1999,0.0
2041,0.0
2,3, 1,23, 0,24, 0.00,60.00,Wednesday
675,24.25304750526258
676,21.92959707001105
677,22.580148744547644
678,22.696540520283027
679,22.578007480185478
1741,0.0
1747,0.0
1753,0.0
1755,0.0
1760,0.0
1766,0.0
1999,0.0
2041,0.0
2,4, 1,24, 0, 1, 0.00,60.00,Thursday
675,24.12455347958413
676,21.686716163666138
677,22.2479196590335
678,22.3511516685789
679,22.239182786343734
1741,0.0
1747,0.0
1753,0.0
1755,0.0
1760,0.0
1766,0.0
1999,0.0
2041,0.0
2,4, 1,24, 0, 2, 0.00,60.00,Thursday
675,24.025744697367878
676,21.575124593276475
677,22.03956110075766
678,22.129761733756174
679,22.024917072853975
1741,0.0
1747,0.0
1753,0.0
1755,0.0
1760,0.0
1766,0.0
1999,0.0
2041,0.0
2,4, 1,24, 0, 3, 0.00,60.00,Thursday
675,23.949272308688856
676,21.569664443273024
677,21.950171806515038
678,22.01626494461253
679,21.905521372983267
1741,0.0
1747,0.0
1753,0.0
1755,0.0
1760,0.0
1766,0.0
1999,0.0
2041,0.0
2,4, 1,24, 0, 4, 0.00,60.00,Thursday
675,23.88915492927442
676,21.58649858776617
677,21.88157355831044
678,21.927675230942034
679,21.814058522857015
1741,0.0
1747,0.0
1753,0.0
1755,0.0
1760,0.0
1766,0.0
1999,0.0
2041,0.0
2,4, 1,24, 0, 5, 0.00,60.00,Thursday
675,23.840871540178779
676,21.606214177643684
677,21.811005296463777
678,21.846135447398419
679,21.735165302070667
1741,0.0
1747,0.0
1753,0.0
1755,0.0
1760,0.0
1766,0.0
1999,0.0
2041,0.0
2,4, 1,24, 0, 6, 0.00,60.00,Thursday
675,23.820282155912098
676,21.758128989614698
677,21.878911881496795
678,21.907917376989013
679,21.806175385231265
1741,0.0
1747,0.0
1753,0.0
1755,0.0
1760,0.0
1766,0.0
1999,0.0
2041,0.0
2,4, 1,24, 0, 7, 0.00,60.00,Thursday
675,23.905034893074864
676,22.121774218901999
677,22.168839741583377
678,22.187510254381214
679,22.10127528847898
1741,0.0
1747,0.0
1753,0.0
1755,0.0
1760,0.0
1766,0.0
1999,0.0
2041,0.0
2,4, 1,24, 0, 8, 0.00,60.00,Thursday
675,20.820323105264089
676,19.75101038932132
677,18.587951209035965
678,19.316198718517634
679,18.322716342730759
1741,98.33333333333333
1747,118.0
1753,98.33333333333333
1755,11135.697797135645
1760,59.0
1766,98.33333333333333
1999,156999.49264267833
2041,628.1102184254592
2,4, 1,24, 0, 9, 0.00,60.00,Thursday
675,20.992702634341855
676,19.977540299271014
677,18.906431618037496
678,19.598764325449446
679,18.494634876520018
1741,0.0
1747,0.0
1753,0.0
1755,0.0
1760,0.0
1766,0.0
1999,0.0
2041,0.0
2,4, 1,24, 0,10, 0.00,60.00,Thursday
675,21.06978736044282
676,20.1401232506496
677,19.09336240617396
678,19.97675572014669
679,18.57728672282088
1741,0.0
1747,0.0
1753,0.0
1755,0.0
1760,0.0
1766,0.0
1999,0.0
2041,0.0
2,4, 1,24, 0,11, 0.00,60.00,Thursday
675,21.262255767418716
676,20.476974733893067
677,19.464681007937079
678,21.100032612422586
679,18.915123638236819
1741,0.0
1747,0.0
1753,0.0
1755,0.0
1760,0.0
1766,0.0
1999,0.0
2041,0.0
2,4, 1,24, 0,12, 0.00,60.00,Thursday
675,21.976063232003314
676,21.328024642183558
677,20.398403289680425
678,22.24232404976816
679,19.977565890375226
1741,0.0
1747,0.0
1753,0.0
1755,0.0
1760,0.0
1766,0.0
1999,0.0
2041,0.0
2,4, 1,24, 0,13, 0.00,60.00,Thursday
675,22.05680345242505
676,21.53804757967283
677,20.56614928416327
678,22.68641774151599
679,20.218745784582123
1741,0.0
1747,0.0
1753,0.0
1755,0.0
1760,0.0
1766,0.0
1999,0.0
2041,0.0
2,4, 1,24, 0,14, 0.00,60.00,Thursday
675,22.263122239857876
676,21.7813220472622
677,20.709082124085407
678,23.502426578911185
679,20.444284944641138
1741,0.0
1747,0.0
1753,0.0
1755,0.0
1760,0.0
1766,0.0
1999,0.0
2041,0.0
2,4, 1,24, 0,15, 0.00,60.00,Thursday
675,22.40251911315189
676,21.87420579203051
677,20.76641802617988
678,23.67352510346081
679,20.953931389179745
1741,0.0
1747,0.0
1753,0.0
1755,0.0
1760,0.0
1766,0.0
1999,0.0
2041,0.0
2,4, 1,24, 0,16, 0.00,60.00,Thursday
675,22.278696195357026
676,21.690066005280717
677,20.468456485557565
678,23.14478051713304
679,21.0507180226738
1741,0.0
1747,0.0
1753,0.0
1755,0.0
1760,0.0
1766,0.0
1999,0.0
2041,0.0
2,4, 1,24, 0,17, 0.00,60.00,Thursday
675,21.93364057089868
676,21.359198043651309
677,19.925941614024969
678,22.284544202132588
679,20.685899629569535
1741,65.0
1747,18.0
1753,100.0
1755,4813.505262500665
1760,60.0
1766,100.0
1999,50507.05859511865
2041,638.7561543309754
2,4, 1,24, 0,18, 0.00,60.00,Thursday
675,21.002690143647393
676,20.465668482364323
677,18.89746971768761
678,20.82487323050032
679,19.17603097144313
1741,0.0
1747,0.0
1753,0.0
1755,0.0
1760,0.0
1766,0.0
1999,0.0
2041,0.0
2,4, 1,24, 0,19, 0.00,60.00,Thursday
675,20.459314571376269
676,19.854223435686394
677,18.321320867928898
678,20.01516168324711
679,18.40209197732819
1741,100.0
1747,120.0
1753,100.0
1755,5734.335892852358
1760,60.0
1766,100.0
1999,85369.25128828388
2041,638.7561543309754
2,4, 1,24, 0,20, 0.00,60.00,Thursday
675,20.341681425322017
676,19.616069357504519
677,18.215283579070378
678,19.714608150202559
679,18.23174296648846
1741,100.0
1747,120.0
1753,100.0
1755,4453.41569993928
1760,60.0
1766,100.0
1999,62757.77854440057
2041,638.7561543309754
2,4, 1,24, 0,21, 0.00,60.00,Thursday
675,20.26388371993448
676,19.43039771541236
677,18.134396598008249
678,19.490379549488379
679,18.11719262449094
1741,100.0
1747,120.0
1753,100.0
1755,4405.459847552521
1760,60.0
1766,100.0
1999,60082.01200976314
2041,638.7561543309754
2,4, 1,24, 0,22, 0.00,60.00,Thursday
675,23.018303503333365
676,21.710931370653417
677,21.48980236192492
678,22.13707834697642
679,21.61944922367264
1741,0.0
1747,0.0
1753,0.0
1755,0.0
1760,0.0
1766,0.0
1999,0.0
2041,0.0
2,4, 1,24, 0,23, 0.00,60.00,Thursday
675,23.69215348211181
676,21.76610251003408
677,21.692031110418627
678,22.18055540199606
679,21.824981528754245
1741,0.0
1747,0.0
1753,0.0
1755,0.0
1760,0.0
1766,0.0
1999,0.0
2041,0.0
2,4, 1,24, 0,24, 0.00,60.00,Thursday
675,23.685940282486535
676,21.60794426494187
677,21.481007485839745
678,21.92856705887055
679,21.59838930562825
1741,0.0
1747,0.0
1753,0.0
1755,0.0
1760,0.0
1766,0.0
1999,0.0
2041,0.0
2,5, 1,25, 0, 1, 0.00,60.00,Friday
675,23.45535210947539
676,21.4984264201044
677,21.3299309715119
678,21.669672602429637
679,21.429485570098764
1741,100.0
1747,120.0
1753,100.0
1755,6201.241519027667
1760,60.0
1766,100.0
1999,45822.91915358487
2041,638.7561543309754
2,5, 1,25, 0, 2, 0.00,60.00,Friday
675,23.02801888468704
676,21.524680390842567
677,21.552765986174746
678,21.652597345910729
679,21.629856515187524
1741,60.0
1747,120.0
1753,100.0
1755,5818.2607320948159
1760,60.0
1766,100.0
1999,38092.64824053846
2041,638.7561543309754
2,5, 1,25, 0, 3, 0.00,60.00,Friday
675,22.751205855686338
676,21.67504709407866
677,21.895528707292919
678,21.81277918153245
679,21.95296383263545
1741,0.0
1747,114.0
1753,70.0
1755,5270.366150410968
1760,60.0
1766,65.0
1999,25746.976108178227
2041,638.7561543309754
2,5, 1,25, 0, 4, 0.00,60.00,Friday
675,22.67169117671775
676,21.812633079328856
677,22.05478973989627
678,21.948770190825429
679,22.096663130879443
1741,0.0
1747,66.0
1753,30.0
1755,4692.398219401255
1760,60.0
1766,20.0
1999,13093.062384638546
2041,638.7561543309754
2,5, 1,25, 0, 5, 0.00,60.00,Friday
675,22.608798037086669
676,21.811683452644716
677,22.04314909528404
678,21.941754020016654
679,22.05410240447625
1741,0.0
1747,84.0
1753,45.0
1755,4763.534933319897
1760,60.0
1766,45.0
1999,17238.631932697008
2041,638.7561543309754
2,5, 1,25, 0, 6, 0.00,60.00,Friday
675,22.593161912732037
676,21.905001643945608
677,22.087257630955514
678,21.991055773901804
679,22.09218493935208
1741,0.0
1747,54.0
1753,20.0
1755,4392.523384826084
1760,60.0
1766,25.0
1999,13635.197001846926
2041,638.7561543309754
2,5, 1,25, 0, 7, 0.00,60.00,Friday
675,22.667148434180804
676,21.973674850554983
677,22.10631180704548
678,22.02502582619659
679,22.09283653448356
1741,0.0
1747,24.0
1753,10.0
1755,2643.8227390925487
1760,36.0
1766,10.0
1999,6594.7541871776979
2041,383.2536925985854
2,5, 1,25, 0, 8, 0.00,60.00,Friday
675,19.89196292633045
676,19.5135678870402
677,18.905809677055463
678,19.327435862246447
679,18.386994614267598
1741,96.66666666666666
1747,118.0
1753,98.33333333333333
1755,12414.958565377496
1760,60.0
1766,98.33333333333333
1999,160965.87060958296
2041,638.7561543309754
2,5, 1,25, 0, 9, 0.00,60.00,Friday
675,20.3557005177836
676,19.866764435476765
677,20.33826783955784
678,20.456340367353673
679,18.93712508494672
1741,100.0
1747,120.0
1753,100.0
1755,11078.014628251443
1760,60.0
1766,100.0
1999,166212.86674700504
2041,638.7561543309754
2,5, 1,25, 0,10, 0.00,60.00,Friday
675,20.83803791692785
676,20.31817510280589
677,20.964259888993053
678,21.703774421751967
679,19.63990192721939
1741,100.0
1747,114.0
1753,100.0
1755,9413.385850288634
1760,60.0
1766,100.0
1999,105565.38205382295
2041,638.7561543309754
2,5, 1,25, 0,11, 0.00,60.00,Friday
675,21.203058376790385
676,20.723010947110035
677,20.79623034613777
678,21.963382255504706
679,20.186281397616619
1741,100.0
1747,90.0
1753,100.0
1755,7901.71638386991
1760,60.0
1766,100.0
1999,84192.46386596134
2041,638.7561543309754
2,5, 1,25, 0,12, 0.00,60.00,Friday
675,21.47186825748104
676,20.975227601228114
677,20.79774373979133
678,22.290514614826784
679,20.497974523541609
1741,100.0
1747,0.0
1753,100.0
1755,6945.494105027339
1760,60.0
1766,100.0
1999,66403.99001147202
2041,638.7561543309754
2,5, 1,25, 0,13, 0.00,60.00,Friday
675,21.536430691551759
676,21.02300355935206
677,20.78436215441709
678,22.80428431350771
679,20.61932512284818
1741,100.0
1747,0.0
1753,100.0
1755,6712.531175941111
1760,60.0
1766,100.0
1999,62043.07668029635
2041,638.7561543309754
2,5, 1,25, 0,14, 0.00,60.00,Friday
675,21.846869715592715
676,21.24292019388873
677,20.949777163513987
678,22.768113338082736
679,20.864681977261417
1741,100.0
1747,0.0
1753,100.0
1755,5932.707177708323
1760,60.0
1766,100.0
1999,50255.69283276339
2041,638.7561543309754
2,5, 1,25, 0,15, 0.00,60.00,Friday
675,22.098775059095837
676,21.484415569750114
677,21.189231313929495
678,23.048317911245797
679,21.514702004140124
1741,10.0
1747,84.0
1753,100.0
1755,5078.900188165756
1760,60.0
1766,100.0
1999,17630.410444664813
2041,638.7561543309754
2,5, 1,25, 0,16, 0.00,60.00,Friday
675,22.01782929368036
676,21.365664581265454
677,20.98219068372037
678,22.427436799444054
679,21.615557805341273
1741,55.0
1747,0.0
1753,100.0
1755,5383.735526776844
1760,60.0
1766,100.0
1999,29965.941952821537
2041,638.7561543309754
2,5, 1,25, 0,17, 0.00,60.00,Friday
675,21.934662111885019
676,21.144554472977885
677,20.744866689183053
678,21.582864705348706
679,21.070721962093964
1741,100.0
1747,120.0
1753,100.0
1755,6171.649906834688
1760,60.0
1766,100.0
1999,58201.169996674544
2041,638.7561543309754
2,5, 1,25, 0,18, 0.00,60.00,Friday
675,21.474549420354199
676,20.631705786678855
677,20.33183587597088
678,20.81627836075794
679,20.347297640357405
1741,100.0
1747,120.0
1753,100.0
1755,7893.177865218179
1760,60.0
1766,100.0
1999,82523.26305986519
2041,638.7561543309754
2,5, 1,25, 0,19, 0.00,60.00,Friday
675,21.204224001223328
676,20.245990388357009
677,20.07710131053123
678,20.413191944526966
679,20.011850772478394