Program Version,EnergyPlus, Version 9.5.0-de239b2e5f, YMD=2021.07.23 02:53
1,5,Environment Title[],Latitude[deg],Longitude[deg],Time Zone[],Elevation[m]
2,8,Day of Simulation[],Month[],Day of Month[],DST Indicator[1=yes 0=no],Hour[],StartMinute[],EndMinute[],DayType
3,5,Cumulative Day of Simulation[],Month[],Day of Month[],DST Indicator[1=yes 0=no],DayType  ! When Daily Meters Requested
4,2,Cumulative Days of Simulation[],Month[]  ! When Monthly Meters Requested
5,1,Cumulative Days of Simulation[] ! When Run Period Meters Requested
6,1,Calendar Year of Simulation[] ! When Annual Meters Requested
9,1,Electricity:Facility [J] !Hourly
1508,1,ElectricityNet:Facility [J] !Hourly
45,1,InteriorLights:Electricity [J] !Hourly
432,1,InteriorEquipment:Electricity [J] !Hourly
End of Data Dictionary
1,ATLANTA-HARTSFIELD.JACKSON.INTL.AP_GA_USA ANN HTG 99.6% CONDNS DB,  33.63, -84.43,  -5.00, 308.00
2,1, 1,21, 0, 1, 0.00,60.00,WinterDesignDay
9,114085554.49409275
45,0.0
432,0.0
1508,114085554.49409275
2,1, 1,21, 0, 2, 0.00,60.00,WinterDesignDay
9,114078354.49409275
45,0.0
432,0.0
1508,114078354.49409275
2,1, 1,21, 0, 3, 0.00,60.00,WinterDesignDay
9,114092754.49409275
45,0.0
432,0.0
1508,114092754.49409275
2,1, 1,21, 0, 4, 0.00,60.00,WinterDesignDay
9,114078354.49409275
45,0.0
432,0.0
1508,114078354.49409275
2,1, 1,21, 0, 5, 0.00,60.00,WinterDesignDay
9,114085554.49409275
45,0.0
432,0.0
1508,114085554.49409275
2,1, 1,21, 0, 6, 0.00,60.00,WinterDesignDay
9,114092754.49409275
45,0.0
432,0.0
1508,114092754.49409275
2,1, 1,21, 0, 7, 0.00,60.00,WinterDesignDay
9,124345014.49409275
45,0.0
432,0.0
1508,124345014.49409272
2,1, 1,21, 0, 8, 0.00,60.00,WinterDesignDay
9,119653764.49409275
45,0.0
432,0.0
1508,119653764.49409272
2,1, 1,21, 0, 9, 0.00,60.00,WinterDesignDay
9,105529614.49409274
45,0.0
432,0.0
1508,105529614.49409274
2,1, 1,21, 0,10, 0.00,60.00,WinterDesignDay
9,105529614.49409274
45,0.0
432,0.0
1508,105529614.49409274
2,1, 1,21, 0,11, 0.00,60.00,WinterDesignDay
9,105529614.49409274
45,0.0
432,0.0
1508,105529614.49409274
2,1, 1,21, 0,12, 0.00,60.00,WinterDesignDay
9,105529614.49409274
45,0.0
432,0.0
1508,105529614.49409274
2,1, 1,21, 0,13, 0.00,60.00,WinterDesignDay
9,105536814.49409274
45,0.0
432,0.0
1508,105536814.49409274
2,1, 1,21, 0,14, 0.00,60.00,WinterDesignDay
9,105536814.49409274
45,0.0
432,0.0
1508,105536814.49409274
2,1, 1,21, 0,15, 0.00,60.00,WinterDesignDay
9,105529614.49409274
45,0.0
432,0.0
1508,105529614.49409274
2,1, 1,21, 0,16, 0.00,60.00,WinterDesignDay
9,105529614.49409274
45,0.0
432,0.0
1508,105529614.49409274
2,1, 1,21, 0,17, 0.00,60.00,WinterDesignDay
9,105529614.49409274
45,0.0
432,0.0
1508,105529614.49409274
2,1, 1,21, 0,18, 0.00,60.00,WinterDesignDay
9,108043134.49409274
45,0.0
432,0.0
1508,108043134.49409274
2,1, 1,21, 0,19, 0.00,60.00,WinterDesignDay
9,124510614.49409275
45,0.0
432,0.0
1508,124510614.49409272
2,1, 1,21, 0,20, 0.00,60.00,WinterDesignDay
9,116630934.49409275
45,0.0
432,0.0
1508,116630934.49409275
2,1, 1,21, 0,21, 0.00,60.00,WinterDesignDay
9,116638134.49409275
45,0.0
432,0.0
1508,116638134.49409275
2,1, 1,21, 0,22, 0.00,60.00,WinterDesignDay
9,116623734.49409275
45,0.0
432,0.0
1508,116623734.49409275
2,1, 1,21, 0,23, 0.00,60.00,WinterDesignDay
9,116638134.49409275
45,0.0
432,0.0
1508,116638134.49409275
2,1, 1,21, 0,24, 0.00,60.00,WinterDesignDay
9,116638134.49409275
45,0.0
432,0.0
1508,116638134.49409275
1,ATLANTA-HARTSFIELD.JACKSON.INTL.AP_GA_USA ANN CLG .4% CONDNS DB=>MWB,  33.63, -84.43,  -5.00, 308.00
2,1, 7,21, 0, 1, 0.00,60.00,SummerDesignDay
9,518329701.7582477
45,152517470.7542746
432,224813060.55296675
1508,518329701.7582477
2,1, 7,21, 0, 2, 0.00,60.00,SummerDesignDay
9,518425701.7582477
45,152517470.7542746
432,224813060.55296675
1508,518425701.7582477
2,1, 7,21, 0, 3, 0.00,60.00,SummerDesignDay
9,518491701.7582477
45,152517470.7542746
432,224813060.55296675
1508,518491701.7582477
2,1, 7,21, 0, 4, 0.00,60.00,SummerDesignDay
9,518509701.7582477
45,152517470.7542746
432,224813060.55296675
1508,518509701.7582477
2,1, 7,21, 0, 5, 0.00,60.00,SummerDesignDay
9,518635701.7582477
45,152517470.7542746
432,224813060.55296675
1508,518635701.7582477
2,1, 7,21, 0, 6, 0.00,60.00,SummerDesignDay
9,516437297.51664856
45,152399851.51267544
432,224813060.55296675
1508,516437297.51664856
2,1, 7,21, 0, 7, 0.00,60.00,SummerDesignDay
9,485135320.88583526
45,129457169.68001552
432,224813060.55296675
1508,485135320.88583526
2,1, 7,21, 0, 8, 0.00,60.00,SummerDesignDay
9,475976459.2887085
45,120340308.08288898
432,224813060.55296675
1508,475976459.2887085
2,1, 7,21, 0, 9, 0.00,60.00,SummerDesignDay
9,465918701.1061987
45,119991185.40467149
432,224813060.55296675
1508,465918701.1061987
2,1, 7,21, 0,10, 0.00,60.00,SummerDesignDay
9,459868736.45741429
45,119991185.40467149
432,224813060.55296675
1508,459868736.45741429
2,1, 7,21, 0,11, 0.00,60.00,SummerDesignDay
9,458933796.65926066
45,119991185.40467149
432,224813060.55296675
1508,458933796.65926066
2,1, 7,21, 0,12, 0.00,60.00,SummerDesignDay
9,458933796.65926066
45,119991185.40467149
432,224813060.55296675
1508,458933796.65926066
2,1, 7,21, 0,13, 0.00,60.00,SummerDesignDay
9,458933796.65926066
45,119991185.40467149
432,224813060.55296675
1508,458933796.65926066
2,1, 7,21, 0,14, 0.00,60.00,SummerDesignDay
9,458933796.65926066
45,119991185.40467149
432,224813060.55296675
1508,458933796.65926066
2,1, 7,21, 0,15, 0.00,60.00,SummerDesignDay
9,458987796.65926066
45,119991185.40467149
432,224813060.55296675
1508,458987796.65926066
2,1, 7,21, 0,16, 0.00,60.00,SummerDesignDay
9,458939796.65926066
45,119991185.40467149
432,224813060.55296675
1508,458939796.65926066
2,1, 7,21, 0,17, 0.00,60.00,SummerDesignDay
9,458975796.65926066
45,119991185.40467149
432,224813060.55296675
1508,458975796.65926066
2,1, 7,21, 0,18, 0.00,60.00,SummerDesignDay
9,458992052.42766299
45,120025441.17307365
432,224813060.55296675
1508,458992052.42766299
2,1, 7,21, 0,19, 0.00,60.00,SummerDesignDay
9,461210757.78704628
45,122268146.53245703
432,224813060.55296675
1508,461210757.78704628
2,1, 7,21, 0,20, 0.00,60.00,SummerDesignDay
9,489052693.1429319
45,146615183.8883431
432,224813060.55296675
1508,489052693.1429319
2,1, 7,21, 0,21, 0.00,60.00,SummerDesignDay
9,502496602.0088633
45,152517470.7542746
432,224813060.55296675
1508,502496602.0088633
2,1, 7,21, 0,22, 0.00,60.00,SummerDesignDay
9,502496602.0088633
45,152517470.7542746
432,224813060.55296675
1508,502496602.0088633
2,1, 7,21, 0,23, 0.00,60.00,SummerDesignDay
9,515555708.3039942
45,152517470.7542746
432,224813060.55296675
1508,515555708.3039942
2,1, 7,21, 0,24, 0.00,60.00,SummerDesignDay
9,520593081.7582477
45,152517470.7542746
432,224813060.55296675
1508,520593081.7582477
1,RUNPERIOD 1,  33.63, -84.43,  -5.00, 308.00
2,1, 7,21, 0, 1, 0.00,60.00,Monday
9,92228231.49643843
45,7625873.53771374
432,44533202.00181081
1508,92228231.49643843
2,1, 7,21, 0, 2, 0.00,60.00,Monday
9,90524177.68850044
45,7625873.53771374
432,44533202.00181081
1508,90524177.68850042
2,1, 7,21, 0, 3, 0.00,60.00,Monday
9,84909980.39272778
45,7625873.53771374
432,44533202.00181081
1508,84909980.39272778
2,1, 7,21, 0, 4, 0.00,60.00,Monday
9,82729908.64881037
45,7625873.53771374
432,44533202.00181081
1508,82729908.64881037
2,1, 7,21, 0, 5, 0.00,60.00,Monday
9,76693693.41705835
45,7625873.53771374
432,44533202.00181081
1508,76693693.41705835
2,1, 7,21, 0, 6, 0.00,60.00,Monday
9,93975594.66448152
45,15074147.257612158
432,44533202.00181081
1508,93975594.6644815
2,1, 7,21, 0, 7, 0.00,60.00,Monday
9,99511834.46818505
45,11042226.431112895
432,55180531.87831209
1508,99511834.46818505
2,1, 7,21, 0, 8, 0.00,60.00,Monday
9,256190585.71663357
45,31131081.30798453
432,95796493.41677362
1508,256190585.71663357
2,1, 7,21, 0, 9, 0.00,60.00,Monday
9,427945115.4006751
45,93124323.85391505
432,204227663.7591696
1508,427945115.4006751
2,1, 7,21, 0,10, 0.00,60.00,Monday
9,382244620.97000339
45,93124323.85391505
432,174055806.61631225
1508,382244620.97000339
2,1, 7,21, 0,11, 0.00,60.00,Monday
9,374346944.9081135
45,93124323.85391505
432,167093070.3525762
1508,374346944.9081135
2,1, 7,21, 0,12, 0.00,60.00,Monday
9,381309681.1718491
45,93124323.85391505
432,174055806.61631225
1508,381309681.1718491
2,1, 7,21, 0,13, 0.00,60.00,Monday
9,384921388.86161229
45,93124323.85391505
432,177667514.30607493
1508,384921388.86161229
2,1, 7,21, 0,14, 0.00,60.00,Monday
9,387111961.39163008
45,93124323.85391505
432,179858086.83609239
1508,387111961.39163008
2,1, 7,21, 0,15, 0.00,60.00,Monday
9,374346944.9081135
45,93124323.85391505
432,167093070.3525762
1508,374346944.9081135
2,1, 7,21, 0,16, 0.00,60.00,Monday
9,374346944.9081135
45,93124323.85391505
432,167093070.3525762
1508,374346944.9081135
2,1, 7,21, 0,17, 0.00,60.00,Monday
9,384791049.3037177
45,93124323.85391505
432,177537174.74818046
1508,384791049.3037177
2,1, 7,21, 0,18, 0.00,60.00,Monday
9,306836220.60879507
45,51782730.33400772
432,140923939.57316477
1508,306836220.60879507
2,1, 7,21, 0,19, 0.00,60.00,Monday
9,222134679.35345827
45,31744256.93385141
432,69106004.40578471
1508,222134679.35345815
2,1, 7,21, 0,20, 0.00,60.00,Monday
9,231924627.05136208
45,37730282.34437338
432,59822356.054136309
1508,231924627.05136208
2,1, 7,21, 0,21, 0.00,60.00,Monday
9,228765910.60272167
45,26303943.895732464
432,59822356.054136309
1508,228765910.60272167
2,1, 7,21, 0,22, 0.00,60.00,Monday
9,120397618.23886499
45,26303943.895732464
432,55180531.87831209
1508,120397618.23886499
2,1, 7,21, 0,23, 0.00,60.00,Monday
9,112526099.98493845
45,13151971.947866232
432,55180531.87831209
1508,112526099.98493845
2,1, 7,21, 0,24, 0.00,60.00,Monday
9,106045053.80915903
45,6575985.973933116
432,55180531.87831209
1508,106045053.80915903
2,2, 7,22, 0, 1, 0.00,60.00,Tuesday
9,92492231.49643843
45,7625873.53771374
432,44533202.00181081
1508,92492231.49643843
2,2, 7,22, 0, 2, 0.00,60.00,Tuesday
9,91854213.56045909
45,7625873.53771374
432,44533202.00181081
1508,91854213.56045909
2,2, 7,22, 0, 3, 0.00,60.00,Tuesday
9,87680070.07262443
45,7625873.53771374
432,44533202.00181081
1508,87680070.07262443
2,2, 7,22, 0, 4, 0.00,60.00,Tuesday
9,86206034.20066576
45,7625873.53771374
432,44533202.00181081
1508,86206034.20066576
2,2, 7,22, 0, 5, 0.00,60.00,Tuesday
9,75681657.54509968
45,7625873.53771374
432,44533202.00181081
1508,75681657.54509968
2,2, 7,22, 0, 6, 0.00,60.00,Tuesday
9,93913392.78568496
45,15056426.378815612
432,44533202.00181081
1508,93913392.78568495
2,2, 7,22, 0, 7, 0.00,60.00,Tuesday
9,100271273.89495217
45,11022726.0597262
432,55180531.87831209
1508,100271273.89495217
2,2, 7,22, 0, 8, 0.00,60.00,Tuesday
9,256903414.47071518
45,31156695.92976554
432,95796493.41677362
1508,256903414.47071518
2,2, 7,22, 0, 9, 0.00,60.00,Tuesday
9,429212018.0640903
45,93124323.85391505
432,204227663.7591696
1508,429212018.0640903
2,2, 7,22, 0,10, 0.00,60.00,Tuesday
9,388294585.6187878
45,93124323.85391505
432,174055806.61631225
1508,388294585.6187878
2,2, 7,22, 0,11, 0.00,60.00,Tuesday
9,375281884.70626738
45,93124323.85391505
432,167093070.3525762
1508,375281884.70626738
2,2, 7,22, 0,12, 0.00,60.00,Tuesday
9,382244620.97000339
45,93124323.85391505
432,174055806.61631225
1508,382244620.97000339
2,2, 7,22, 0,13, 0.00,60.00,Tuesday
9,385856328.65976598
45,93124323.85391505
432,177667514.30607493
1508,385856328.65976598
2,2, 7,22, 0,14, 0.00,60.00,Tuesday
9,388046901.18978378
45,93124323.85391505
432,179858086.83609239
1508,388046901.18978378
2,2, 7,22, 0,15, 0.00,60.00,Tuesday
9,375281884.70626738
45,93124323.85391505
432,167093070.3525762
1508,375281884.70626738
2,2, 7,22, 0,16, 0.00,60.00,Tuesday
9,375281884.70626738
45,93124323.85391505
432,167093070.3525762
1508,375281884.70626738
2,2, 7,22, 0,17, 0.00,60.00,Tuesday
9,385880669.3255041
45,93279004.07754724
432,177537174.74818046
1508,385880669.3255041
2,2, 7,22, 0,18, 0.00,60.00,Tuesday
9,313444014.9444053
45,53337699.883656579
432,140923939.57316477
1508,313444014.9444053
2,2, 7,22, 0,19, 0.00,60.00,Tuesday
9,236508130.77748508
45,34840095.92069393
432,69106004.40578471
1508,236508130.77748508
2,2, 7,22, 0,20, 0.00,60.00,Tuesday
9,235458232.4077134
45,38990947.902570959
432,59822356.054136309
1508,235458232.40771345
2,2, 7,22, 0,21, 0.00,60.00,Tuesday
9,230408850.4008754
45,26303943.895732464
432,59822356.054136309
1508,230408850.4008754
2,2, 7,22, 0,22, 0.00,60.00,Tuesday
9,112268306.93330838
45,26303943.895732464
432,55180531.87831209
1508,112268306.93330838
2,2, 7,22, 0,23, 0.00,60.00,Tuesday
9,101128698.99948484
45,13151971.947866232
432,55180531.87831209
1508,101128698.99948482
2,2, 7,22, 0,24, 0.00,60.00,Tuesday
9,103921053.80915903
45,6575985.973933116
432,55180531.87831209
1508,103921053.80915903
End of Data
 Number of Records Written=         384
