Program Version,EnergyPlus, Version 9.5.0-de239b2e5f, YMD=2021.07.23 02:53
1,5,Environment Title[],Latitude[deg],Longitude[deg],Time Zone[],Elevation[m]
2,8,Day of Simulation[],Month[],Day of Month[],DST Indicator[1=yes 0=no],Hour[],StartMinute[],EndMinute[],DayType
3,5,Cumulative Day of Simulation[],Month[],Day of Month[],DST Indicator[1=yes 0=no],DayType  ! When Daily Report Variables Requested
4,2,Cumulative Days of Simulation[],Month[]  ! When Monthly Report Variables Requested
5,1,Cumulative Days of Simulation[] ! When Run Period Report Variables Requested
6,1,Calendar Year of Simulation[] ! When Annual Report Variables Requested
651,1,PERIMETER_BOT_ZN_1,Zone Mean Air Temperature [C] !Hourly
1716,1,PERI1_TOP_LOTEMP,Zone Radiant HVAC Cooling Rate [W] !Hourly
End of Data Dictionary
1,ATLANTA-HARTSFIELD.JACKSON.INTL.AP_GA_USA ANN HTG 99.6% CONDNS DB,  33.63, -84.43,  -5.00, 308.00
2,1, 1,21, 0, 1, 0.00,60.00,WinterDesignDay
651,16.010609115123445
1716,0.0
2,1, 1,21, 0, 2, 0.00,60.00,WinterDesignDay
651,16.01273822320849
1716,0.0
2,1, 1,21, 0, 3, 0.00,60.00,WinterDesignDay
651,16.009754289396605
1716,0.0
2,1, 1,21, 0, 4, 0.00,60.00,WinterDesignDay
651,16.012345712258907
1716,0.0
2,1, 1,21, 0, 5, 0.00,60.00,WinterDesignDay
651,16.010653707673993
1716,0.0
2,1, 1,21, 0, 6, 0.00,60.00,WinterDesignDay
651,16.010425968216894
1716,0.0
2,1, 1,21, 0, 7, 0.00,60.00,WinterDesignDay
651,16.073699118345567
1716,0.0
2,1, 1,21, 0, 8, 0.00,60.00,WinterDesignDay
651,16.028001835787124
1716,0.0
2,1, 1,21, 0, 9, 0.00,60.00,WinterDesignDay
651,16.02311659245585
1716,0.0
2,1, 1,21, 0,10, 0.00,60.00,WinterDesignDay
651,16.022960354199978
1716,0.0
2,1, 1,21, 0,11, 0.00,60.00,WinterDesignDay
651,16.0212300000227
1716,0.0
2,1, 1,21, 0,12, 0.00,60.00,WinterDesignDay
651,16.02219149250126
1716,0.0
2,1, 1,21, 0,13, 0.00,60.00,WinterDesignDay
651,16.02128655571646
1716,0.0
2,1, 1,21, 0,14, 0.00,60.00,WinterDesignDay
651,16.021937386698668
1716,0.0
2,1, 1,21, 0,15, 0.00,60.00,WinterDesignDay
651,16.02298533338868
1716,0.0
2,1, 1,21, 0,16, 0.00,60.00,WinterDesignDay
651,16.023022653318649
1716,0.0
2,1, 1,21, 0,17, 0.00,60.00,WinterDesignDay
651,16.02215085413572
1716,0.0
2,1, 1,21, 0,18, 0.00,60.00,WinterDesignDay
651,16.021691027472888
1716,0.0
2,1, 1,21, 0,19, 0.00,60.00,WinterDesignDay
651,16.000237940764867
1716,0.0
2,1, 1,21, 0,20, 0.00,60.00,WinterDesignDay
651,16.013380470832599
1716,0.0
2,1, 1,21, 0,21, 0.00,60.00,WinterDesignDay
651,16.01318963163228
1716,0.0
2,1, 1,21, 0,22, 0.00,60.00,WinterDesignDay
651,16.012820823247055
1716,0.0
2,1, 1,21, 0,23, 0.00,60.00,WinterDesignDay
651,16.010536285360084
1716,0.0
2,1, 1,21, 0,24, 0.00,60.00,WinterDesignDay
651,16.010203303875249
1716,0.0
1,ATLANTA-HARTSFIELD.JACKSON.INTL.AP_GA_USA ANN CLG .4% CONDNS DB=>MWB,  33.63, -84.43,  -5.00, 308.00
2,1, 7,21, 0, 1, 0.00,60.00,SummerDesignDay
651,25.94059538636174
1716,13326.583496866358
2,1, 7,21, 0, 2, 0.00,60.00,SummerDesignDay
651,24.84662567777481
1716,13384.902468498358
2,1, 7,21, 0, 3, 0.00,60.00,SummerDesignDay
651,23.978897727268217
1716,13424.74330179826
2,1, 7,21, 0, 4, 0.00,60.00,SummerDesignDay
651,23.41545659136004
1716,13460.12340586064
2,1, 7,21, 0, 5, 0.00,60.00,SummerDesignDay
651,23.03995140313761
1716,13469.893380765103
2,1, 7,21, 0, 6, 0.00,60.00,SummerDesignDay
651,22.745247069001264
1716,13469.10566316627
2,1, 7,21, 0, 7, 0.00,60.00,SummerDesignDay
651,23.443710125705349
1716,0.0
2,1, 7,21, 0, 8, 0.00,60.00,SummerDesignDay
651,24.194221982861899
1716,0.0
2,1, 7,21, 0, 9, 0.00,60.00,SummerDesignDay
651,24.386413629926115
1716,13581.075257746415
2,1, 7,21, 0,10, 0.00,60.00,SummerDesignDay
651,24.470893098952204
1716,13460.019958025863
2,1, 7,21, 0,11, 0.00,60.00,SummerDesignDay
651,25.347002198261597
1716,0.0
2,1, 7,21, 0,12, 0.00,60.00,SummerDesignDay
651,26.472434114153509
1716,0.0
2,1, 7,21, 0,13, 0.00,60.00,SummerDesignDay
651,27.277293977850016
1716,0.0
2,1, 7,21, 0,14, 0.00,60.00,SummerDesignDay
651,27.815548118984304
1716,0.0
2,1, 7,21, 0,15, 0.00,60.00,SummerDesignDay
651,28.08209093488625
1716,0.0
2,1, 7,21, 0,16, 0.00,60.00,SummerDesignDay
651,28.11903645386552
1716,0.0
2,1, 7,21, 0,17, 0.00,60.00,SummerDesignDay
651,28.136852787761403
1716,0.0
2,1, 7,21, 0,18, 0.00,60.00,SummerDesignDay
651,28.231696051772535
1716,0.0
2,1, 7,21, 0,19, 0.00,60.00,SummerDesignDay
651,28.2392886202617
1716,0.0
2,1, 7,21, 0,20, 0.00,60.00,SummerDesignDay
651,28.218137093802647
1716,0.0
2,1, 7,21, 0,21, 0.00,60.00,SummerDesignDay
651,28.15872856475026
1716,0.0
2,1, 7,21, 0,22, 0.00,60.00,SummerDesignDay
651,28.104656247254906
1716,0.0
2,1, 7,21, 0,23, 0.00,60.00,SummerDesignDay
651,27.811838328302568
1716,0.0
2,1, 7,21, 0,24, 0.00,60.00,SummerDesignDay
651,27.11642953021277
1716,13858.340724575459
1,RUNPERIOD 1,  33.63, -84.43,  -5.00, 308.00
2,1, 7,21, 0, 1, 0.00,60.00,Monday
651,23.420446470033423
1716,13345.912558370017
2,1, 7,21, 0, 2, 0.00,60.00,Monday
651,22.324956338988959
1716,13420.967198452525
2,1, 7,21, 0, 3, 0.00,60.00,Monday
651,21.6587980360251
1716,13460.621106177572
2,1, 7,21, 0, 4, 0.00,60.00,Monday
651,21.18015220375772
1716,13348.950695871126
2,1, 7,21, 0, 5, 0.00,60.00,Monday
651,20.794790225513326
1716,13563.371583066622
2,1, 7,21, 0, 6, 0.00,60.00,Monday
651,20.454577189198415
1716,13443.260765443914
2,1, 7,21, 0, 7, 0.00,60.00,Monday
651,20.939632547252967
1716,0.0
2,1, 7,21, 0, 8, 0.00,60.00,Monday
651,22.593281801876743
1716,0.0
2,1, 7,21, 0, 9, 0.00,60.00,Monday
651,23.18380494634956
1716,13636.12899439607
2,1, 7,21, 0,10, 0.00,60.00,Monday
651,23.655743756786749
1716,13470.708691564965
2,1, 7,21, 0,11, 0.00,60.00,Monday
651,24.641570071404748
1716,0.0
2,1, 7,21, 0,12, 0.00,60.00,Monday
651,25.816436158146037
1716,0.0
2,1, 7,21, 0,13, 0.00,60.00,Monday
651,27.839947684077229
1716,0.0
2,1, 7,21, 0,14, 0.00,60.00,Monday
651,27.404780443805234
1716,0.0
2,1, 7,21, 0,15, 0.00,60.00,Monday
651,27.491045175686915
1716,0.0
2,1, 7,21, 0,16, 0.00,60.00,Monday
651,27.488511008401976
1716,0.0
2,1, 7,21, 0,17, 0.00,60.00,Monday
651,27.457012186778689
1716,0.0
2,1, 7,21, 0,18, 0.00,60.00,Monday
651,28.67033693275822
1716,0.0
2,1, 7,21, 0,19, 0.00,60.00,Monday
651,27.159818152341058
1716,0.0
2,1, 7,21, 0,20, 0.00,60.00,Monday
651,26.262888994869095
1716,0.0
2,1, 7,21, 0,21, 0.00,60.00,Monday
651,25.77341700500164
1716,0.0
2,1, 7,21, 0,22, 0.00,60.00,Monday
651,25.51581173957943
1716,0.0
2,1, 7,21, 0,23, 0.00,60.00,Monday
651,25.42855630706326
1716,0.0
2,1, 7,21, 0,24, 0.00,60.00,Monday
651,24.747071188333206
1716,13752.75402792314
2,2, 7,22, 0, 1, 0.00,60.00,Tuesday
651,23.440593353667905
1716,13346.442764058114
2,2, 7,22, 0, 2, 0.00,60.00,Tuesday
651,22.386696068853863
1716,13421.147987184539
2,2, 7,22, 0, 3, 0.00,60.00,Tuesday
651,21.758311876030544
1716,13461.128085587097
2,2, 7,22, 0, 4, 0.00,60.00,Tuesday
651,21.267360629841826
1716,13460.592406396861
2,2, 7,22, 0, 5, 0.00,60.00,Tuesday
651,20.841430304583345
1716,13455.644657151395
2,2, 7,22, 0, 6, 0.00,60.00,Tuesday
651,20.46077234839731
1716,13443.457843872475
2,2, 7,22, 0, 7, 0.00,60.00,Tuesday
651,20.336349230962388
1716,13132.766396392713
2,2, 7,22, 0, 8, 0.00,60.00,Tuesday
651,21.446555051581958
1716,13000.76203643219
2,2, 7,22, 0, 9, 0.00,60.00,Tuesday
651,21.410918716572483
1716,11461.597717341454
2,2, 7,22, 0,10, 0.00,60.00,Tuesday
651,21.793015494074248
1716,11548.868994884582
2,2, 7,22, 0,11, 0.00,60.00,Tuesday
651,22.530345619206995
1716,12556.703900530149
2,2, 7,22, 0,12, 0.00,60.00,Tuesday
651,23.20215042108782
1716,13499.96521092306
2,2, 7,22, 0,13, 0.00,60.00,Tuesday
651,25.6225620946145
1716,13514.249934471462
2,2, 7,22, 0,14, 0.00,60.00,Tuesday
651,23.990473893559157
1716,13479.557434721406
2,2, 7,22, 0,15, 0.00,60.00,Tuesday
651,23.504778656232938
1716,13477.700428090577
2,2, 7,22, 0,16, 0.00,60.00,Tuesday
651,23.33507423878338
1716,13476.094075175584
2,2, 7,22, 0,17, 0.00,60.00,Tuesday
651,22.989094841431294
1716,13154.65204929348
2,2, 7,22, 0,18, 0.00,60.00,Tuesday
651,22.975172725642886
1716,12800.282099027543
2,2, 7,22, 0,19, 0.00,60.00,Tuesday
651,20.728400761767799
1716,9017.768159893581
2,2, 7,22, 0,20, 0.00,60.00,Tuesday
651,19.760959338475119
1716,7770.82149327052
2,2, 7,22, 0,21, 0.00,60.00,Tuesday
651,19.285509443032035
1716,7238.2111887032119
2,2, 7,22, 0,22, 0.00,60.00,Tuesday
651,19.028168760026394
1716,6957.642907826043
2,2, 7,22, 0,23, 0.00,60.00,Tuesday
651,18.880174959109078
1716,6789.105628532584
2,2, 7,22, 0,24, 0.00,60.00,Tuesday
651,18.755357227733364
1716,6610.8341957355619
End of Data
 Number of Records Written=         192
