Program Version,EnergyPlus, Version 9.5.0-de239b2e5f, YMD=2021.07.27 15:58
1,5,Environment Title[],Latitude[deg],Longitude[deg],Time Zone[],Elevation[m]
2,8,Day of Simulation[],Month[],Day of Month[],DST Indicator[1=yes 0=no],Hour[],StartMinute[],EndMinute[],DayType
3,5,Cumulative Day of Simulation[],Month[],Day of Month[],DST Indicator[1=yes 0=no],DayType  ! When Daily Report Variables Requested
4,2,Cumulative Days of Simulation[],Month[]  ! When Monthly Report Variables Requested
5,1,Cumulative Days of Simulation[] ! When Run Period Report Variables Requested
6,1,Calendar Year of Simulation[] ! When Annual Report Variables Requested
7,1,Environment,Site Outdoor Air Drybulb Temperature [C] !Hourly
652,1,PERIMETER_BOT_ZN_1_FLOOR,CondFD Phase Change Node Temperature 1 [C] !Hourly
653,1,PERIMETER_BOT_ZN_1_FLOOR,CondFD Phase Change State 3 [] !Hourly
654,1,PERIMETER_BOT_ZN_1_FLOOR,CondFD Phase Change Node Temperature 3 [C] !Hourly
655,1,PERIMETER_BOT_ZN_1_FLOOR,CondFD Phase Change Node Temperature 10 [C] !Hourly
656,1,PERIMETER_BOT_ZN_1_FLOOR,CondFD Phase Change Node Temperature 15 [C] !Hourly
657,1,PERIMETER_BOT_ZN_1,Zone Mean Air Temperature [C] !Hourly
1722,1,PERI1_TOP_LOTEMP,Zone Radiant HVAC Cooling Rate [W] !Hourly
1725,1,PERI1_TOP_LOTEMP,Zone Radiant HVAC Mass Flow Rate [kg/s] !Hourly
1726,1,PERI1_TOP_LOTEMP,Zone Radiant HVAC Injection Mass Flow Rate [kg/s] !Hourly
1727,1,PERI1_TOP_LOTEMP,Zone Radiant HVAC Recirculation Mass Flow Rate [kg/s] !Hourly
1728,1,PERI1_TOP_LOTEMP,Zone Radiant HVAC Inlet Temperature [C] !Hourly
1729,1,PERI1_TOP_LOTEMP,Zone Radiant HVAC Outlet Temperature [C] !Hourly
1735,1,PERI2_TOP_LOTEMP,Zone Radiant HVAC Outlet Temperature [C] !Hourly
1957,1,PERI1_TOP_LOTEMP_CHW_INLET,System Node Temperature [C] !Hourly
1958,1,PERI1_TOP_LOTEMP_CHW_OUTLET,System Node Temperature [C] !Hourly
End of Data Dictionary
1,RUNPERIOD 1,  41.98, -87.92,  -6.00, 201.00
2,1, 7, 1, 0, 1, 0.00,60.00,Sunday
7,17.098333333333334
652,23.450000000000029
654,23.429214870849529
655,22.93394186661966
656,20.77633861704732
657,21.049231134749645
653,0.0
1722,0.0
1725,0.0
1726,0.0
1727,0.0
1728,12.372563980545279
1729,12.372563980545279
1735,11.9773934159324
1957,12.294618717320678
1958,12.294618717320678
2,1, 7, 1, 0, 2, 0.00,60.00,Sunday
7,16.8475
652,23.450000000000029
654,23.429512410827337
655,22.939084646125573
656,20.800583975770218
657,21.001767476956269
653,0.0
1722,0.0
1725,0.0
1726,0.0
1727,0.0
1728,12.372563980545279
1729,12.372563980545279
1735,11.9773934159324
1957,12.294618717320678
1958,12.294618717320678
2,1, 7, 1, 0, 3, 0.00,60.00,Sunday
7,16.5475
652,23.450000000000029
654,23.42964690505625
655,22.87288110803776
656,19.903963156148515
657,20.554916702974905
653,0.0
1722,13499.171702774032
1725,0.5467642243600003
1726,0.5467642243600003
1727,0.0
1728,13.098128135046699
1729,18.994359582909686
1735,11.9773934159324
1957,13.025507536793328
1958,18.994359582909686
2,1, 7, 1, 0, 4, 0.00,60.00,Sunday
7,16.2475
652,23.450000000000029
654,23.427305248863794
655,22.639859384676496
656,18.76405304054992
657,19.94591694673779
653,0.0
1722,13341.290842669589
1725,0.5467642243600003
1726,0.5467642243600003
1727,0.0
1728,12.091530543854278
1729,17.917126647517429
1735,11.9773934159324
1957,12.0285821469993
1958,17.917126647517429
2,1, 7, 1, 0, 5, 0.00,60.00,Sunday
7,16.100000000000017
652,23.450000000000029
654,23.422202866820237
655,22.520260657721079
656,18.33393002660216
657,19.611414379773416
653,0.0
1722,12389.060919356274
1725,0.5467642243600003
1726,0.5467642243600003
1727,0.0
1728,11.999385817014108
1729,17.409037894022768
1735,11.9773934159324
1957,11.95222822168254
1958,17.409037894022768
2,1, 7, 1, 0, 6, 0.00,60.00,Sunday
7,16.100000000000017
652,23.450000000000029
654,23.417555155106709
655,22.452577537079244
656,18.0470264609214
657,19.459552620844776
653,0.0
1722,11574.10344910029
1725,0.5467642243600003
1726,0.5467642243600003
1727,0.0
1728,11.999410044034905
1729,17.05321304156398
1735,11.9773934159324
1957,11.952252252252262
1958,17.05321304156398
2,1, 7, 1, 0, 7, 0.00,60.00,Sunday
7,16.100000000000017
652,23.450000000000029
654,23.413960014827436
655,22.40776462794905
656,18.005291717985679
657,19.84413470124889
653,0.0
1722,0.0
1725,0.0
1726,0.0
1727,0.0
1728,11.999410044034905
1729,11.999410044034905
1735,11.9773934159324
1957,11.952252252252262
1958,11.952252252252262
2,1, 7, 1, 0, 8, 0.00,60.00,Sunday
7,16.405
652,23.450000000000029
654,23.41182030873084
655,22.48106317841222
656,18.65481012607891
657,20.462420415638044
653,0.0
1722,0.0
1725,0.0
1726,0.0
1727,0.0
1728,11.999410044034905
1729,11.999410044034905
1735,11.9773934159324
1957,11.952252252252262
1958,11.952252252252262
2,1, 7, 1, 0, 9, 0.00,60.00,Sunday
7,16.954166666666663
652,23.450000000000029
654,23.412418535906168
655,22.590413409261556
656,19.237139718284948
657,21.09105425407794
653,0.0
1722,0.0
1725,0.0
1726,0.0
1727,0.0
1728,11.999410044034905
1729,11.999410044034905
1735,13.112457169852405
1957,11.952252252252262
1958,11.952252252252262
2,1, 7, 1, 0,10, 0.00,60.00,Sunday
7,17.505
652,23.450000000000029
654,23.414789513809209
655,22.684322165653886
656,19.6964829330817
657,21.738985288864414
653,0.0
1722,0.0
1725,0.0
1726,0.0
1727,0.0
1728,11.999410044034905
1729,11.999410044034905
1735,14.123422744958669
1957,11.952252252252262
1958,11.952252252252262
2,1, 7, 1, 0,11, 0.00,60.00,Sunday
7,18.054166666666668
652,23.450000000000029
654,23.41773093723707
655,22.758887706346419
656,20.04316867239197
657,22.37897659809694
653,0.0
1722,0.0
1725,0.0
1726,0.0
1727,0.0
1728,11.999410044034905
1729,11.999410044034905
1735,14.26218304181088
1957,11.952252252252262
1958,11.952252252252262
2,1, 7, 1, 0,12, 0.00,60.00,Sunday
7,18.29999999999998
652,23.450000000000029
654,23.420510034062525
655,22.765641583022533
656,19.62292159472003
657,22.420713359751475
653,0.0
1722,13568.888083007
1725,0.5467642243600003
1726,0.5467642243600003
1727,0.0
1728,12.981653817272905
1729,18.908130521541879
1735,14.646875147865929
1957,12.907814028887993
1958,18.908130521541879
2,1, 7, 1, 0,13, 0.00,60.00,Sunday
7,18.605000000000005
652,23.450000000000029
654,23.421122242754508
655,22.648071044189515
656,19.260199810661555
657,22.630185469229909
653,0.0
1722,0.0
1725,0.0
1726,0.0
1727,0.0
1728,12.492047677139312
1729,12.492047677139312
1735,14.19516321726388
1957,12.413255799497657
1958,12.413255799497657
2,1, 7, 1, 0,14, 0.00,60.00,Sunday
7,18.34083333333333
652,23.450000000000029
654,23.42011457070613
655,22.67948266147996
656,19.308590571107357
657,22.618592488287498
653,0.0
1722,13486.41631112557
1725,0.5467642243600003
1726,0.5467642243600003
1727,0.0
1728,12.796042901502899
1729,18.68619596884974
1735,14.428570345377738
1957,12.722264250636285
1958,18.68619596884974
2,1, 7, 1, 0,15, 0.00,60.00,Sunday
7,17.79999999999998
652,23.450000000000029
654,23.41952861477412
655,22.616643032805187
656,19.15563898940685
657,22.54852740536173
653,0.0
1722,0.0
1725,0.0
1726,0.0
1727,0.0
1728,12.372443361374284
1729,12.372443361374284
1735,13.677224250892858
1957,12.294499045887469
1958,12.294499045887469
2,1, 7, 1, 0,16, 0.00,60.00,Sunday
7,16.935833333333336
652,23.450000000000029
654,23.418826591527659
655,22.70437120229202
656,19.809653531499177
657,22.42779548343327
653,0.0
1722,0.0
1725,0.0
1726,0.0
1727,0.0
1728,12.372443361374284
1729,12.372443361374284
1735,12.420443249592502
1957,12.294499045887469
1958,12.294499045887469
2,1, 7, 1, 0,17, 0.00,60.00,Sunday
7,15.845833333333332
652,23.450000000000029
654,23.420186704359023
655,22.785443567740495
656,20.15236836730327
657,22.090002641149753
653,0.0
1722,0.0
1725,0.0
1726,0.0
1727,0.0
1728,12.372443361374284
1729,12.372443361374284
1735,11.968092409460722
1957,12.294499045887469
1958,12.294499045887469
2,1, 7, 1, 0,18, 0.00,60.00,Sunday
7,15.854166666666666
652,23.450000000000029
654,23.422285985181028
655,22.832945444930805
656,20.34944934882586
657,21.8651760055454
653,0.0
1722,0.0
1725,0.0
1726,0.0
1727,0.0
1728,12.372443361374284
1729,12.372443361374284
1735,11.968092409460722
1957,12.294499045887469
1958,12.294499045887469
2,1, 7, 1, 0,19, 0.00,60.00,Sunday
7,16.100000000000017
652,23.450000000000029
654,23.424192162880638
655,22.86410215986514
656,20.479607909908219
657,21.608198606922156
653,0.0
1722,0.0
1725,0.0
1726,0.0
1727,0.0
1728,12.372443361374284
1729,12.372443361374284
1735,11.968092409460722
1957,12.294499045887469
1958,12.294499045887469
2,1, 7, 1, 0,20, 0.00,60.00,Sunday
7,16.100000000000017
652,23.450000000000029
654,23.42571268708226
655,22.885874610443865
656,20.569691375956798
657,21.350567475795328
653,0.0
1722,0.0
1725,0.0
1726,0.0
1727,0.0
1728,12.372443361374284
1729,12.372443361374284
1735,11.968092409460722
1957,12.294499045887469
1958,12.294499045887469
2,1, 7, 1, 0,21, 0.00,60.00,Sunday
7,16.100000000000017
652,23.450000000000029
654,23.42686954972946
655,22.901294278513335
656,20.63306218006733
657,21.166794370826094
653,0.0
1722,0.0
1725,0.0
1726,0.0
1727,0.0
1728,12.372443361374284
1729,12.372443361374284
1735,11.968092409460722
1957,12.294499045887469
1958,12.294499045887469
2,1, 7, 1, 0,22, 0.00,60.00,Sunday
7,16.659166666666669
652,23.450000000000029
654,23.42772957613202
655,22.91245378922221
656,20.67970895875019
657,21.09475926800485
653,0.0
1722,0.0
1725,0.0
1726,0.0
1727,0.0
1728,12.372443361374284
1729,12.372443361374284
1735,11.968092409460722
1957,12.294499045887469
1958,12.294499045887469
2,1, 7, 1, 0,23, 0.00,60.00,Sunday
7,17.20000000000002
652,23.450000000000029
654,23.42836420262398
655,22.920969660032836
656,20.716805348076759
657,21.08094924686186
653,0.0
1722,0.0
1725,0.0
1726,0.0
1727,0.0
1728,12.372443361374284
1729,12.372443361374284
1735,11.968092409460722
1957,12.294499045887469
1958,12.294499045887469
2,1, 7, 1, 0,24, 0.00,60.00,Sunday
7,17.20000000000002
652,23.450000000000029
654,23.428841071065564
655,22.92793281476844
656,20.74834899139737
657,21.067593232805917
653,0.0
1722,0.0
1725,0.0
1726,0.0
1727,0.0
1728,12.372443361374284
1729,12.372443361374284
1735,11.968092409460722
1957,12.294499045887469
1958,12.294499045887469
2,2, 7, 2, 0, 1, 0.00,60.00,Monday
7,17.20000000000002
652,23.450000000000029
654,23.429103043545955
655,22.86499329777388
656,19.88036524886136
657,20.717165525382634
653,0.0
1722,13499.429471680278
1725,0.5467642243600003
1726,0.5467642243600003
1727,0.0
1728,13.087917757979044
1729,18.984244618351697
1735,11.968092409460722
1957,13.015240564449006
1958,18.984244618351697
2,2, 7, 2, 0, 2, 0.00,60.00,Monday
7,17.20000000000002
652,23.450000000000029
654,23.42691057882936
655,22.63784631901975
656,18.76370785252699
657,20.159037737852846
653,0.0
1722,13449.548218144166
1725,0.5467642243600003
1726,0.5467642243600003
1727,0.0
1728,12.054315578065541
1729,17.92711914721955
1735,11.968092409460722
1957,11.981852360735188
1958,17.92711914721955
2,2, 7, 2, 0, 3, 0.00,60.00,Monday
7,17.20000000000002
652,23.450000000000029
654,23.421974884068946
655,22.519963727069876
656,18.33440410830361
657,19.81561867442861
653,0.0
1722,13350.608268481552
1725,0.5467642243600003
1726,0.5467642243600003
1727,0.0
1728,11.532511347671557
1729,17.36124198350058
1735,11.968092409460722
1957,11.468889817643781
1958,17.361241983500578
2,2, 7, 2, 0, 4, 0.00,60.00,Monday
7,17.20000000000002
652,23.450000000000029
654,23.417430973842177
655,22.45069500382116
656,18.026789442245428
657,19.53984395722875
653,0.0
1722,12544.537010264357
1725,0.5467642243600003
1726,0.5467642243600003
1727,0.0
1728,11.454347762802997
1729,16.93103290792711
1735,11.968092409460722
1957,11.407207207207199
1958,16.93103290792711
2,2, 7, 2, 0, 5, 0.00,60.00,Monday
7,17.20000000000002
652,23.450000000000029
654,23.413802475667816
655,22.37240852453829
656,17.4993116473294
657,19.300920000844508
653,0.0
1722,11521.54453393143
1725,0.5467642243600003
1726,0.5467642243600003
1727,0.0
1728,11.454350461898294
1729,16.48441827119551
1735,11.968092409460722
1957,11.407207207207197
1958,16.48441827119551
2,2, 7, 2, 0, 6, 0.00,60.00,Monday
7,17.505
652,23.450000000000029
654,23.410103881776505
655,22.212412373991186
656,16.426010139801567
657,19.109526338932086
653,0.0
1722,10185.380479298707
1725,0.5467642243600003
1726,0.5467642243600003
1727,0.0
1728,11.30813338265647
1729,15.754677711599245
1735,11.968092409460722
1957,11.26098797489658
1958,15.754677711599245
2,2, 7, 2, 0, 7, 0.00,60.00,Monday
7,17.79999999999998
652,23.450000000000029
654,23.404791906451057
655,22.00365564600684
656,15.384171516569506
657,18.961242453360378
653,0.0
1722,8666.800130361114
1725,0.5467642243600003
1726,0.5408687839617045
1727,0.005895440398295469
1728,11.198001897863824
1729,14.98146860843531
1735,11.968092409460722
1957,11.109957971049362
1958,14.940571783543712
2,2, 7, 2, 0, 8, 0.00,60.00,Monday
7,18.054166666666668
652,23.450000000000029
654,23.398340462653456
655,21.863849913349225
656,14.872350148427154
657,18.745466631903505
653,0.0
1722,7457.252639563262
1725,0.5467642243600003
1726,0.49547020325502436
1727,0.05129402110497564
1728,11.377358263341542
1729,14.632968155459539
1735,19.033595400703456
1957,10.988060549651055
1958,14.29081996587097
2,2, 7, 2, 0, 9, 0.00,60.00,Monday
7,18.859166666666668
652,23.450000000000029
654,23.392750136907194
655,21.79692294978157
656,14.636833191609793
657,19.923643787541228
653,0.0
1722,8599.566425310919
1725,0.5467642243600003
1726,0.543312473526464
1727,0.0034517508335363399
1728,10.664543197632545
1729,14.418077912631507
1735,30.059171727698009
1957,10.594133620542227
1958,14.394804896725724
2,2, 7, 2, 0,10, 0.00,60.00,Monday
7,19.705
652,23.450000000000029
654,23.388740559325347
655,21.751205760638578
656,14.45017801723865
657,20.493437023270038
653,0.0
1722,9242.001524294494
1725,0.5467642243600003
1726,0.5467642243600003
1727,0.0
1728,10.218115755406468
1729,14.251552736998283
1735,30.059171727698009
1957,10.170985996895493
1958,14.251552736998283
2,2, 7, 2, 0,11, 0.00,60.00,Monday
7,20.559166666666667
652,23.450000000000029
654,23.38590299682265
655,21.718835395793879
656,14.318561691775589
657,20.848691556935536
653,0.0
1722,9908.934953251306
1725,0.5467642243600003
1726,0.5467642243600003
1727,0.0
1728,9.798924425388297
1729,14.122861392167968
1735,30.059171727698009
1957,9.751799288389793
1958,14.122861392167968
2,2, 7, 2, 0,12, 0.00,60.00,Monday
7,21.964166666666669
652,23.450000000000029
654,23.383877090686565
655,21.690857599212785
656,14.182848437044877
657,21.441362546300306
653,0.0
1722,11057.424003090748
1725,0.5467642243600003
1726,0.5413272153918669
1727,0.005437008968133106
1728,9.158701173089418
1729,13.982767946413203
1735,30.059171727698009
1957,9.060575061983665
1958,13.931759254093312
2,2, 7, 2, 0,13, 0.00,60.00,Monday
7,23.359166666666668
652,23.450000000000029
654,23.382317259484386
655,21.662842643972465
656,14.0374301724358
657,22.200541426826399
653,0.0
1722,12190.081288897849
1725,0.5467642243600003
1726,0.5369524891156066
1727,0.00981173524439355
1728,8.509573221378652
1729,13.826640934381349
1735,29.868906865443269
1957,8.364500013091409
1958,13.72867520201094
2,2, 7, 2, 0,14, 0.00,60.00,Monday
7,23.900000000000018
652,23.450000000000029
654,23.380980528664997
655,21.63518595261957
656,13.917421272261566
657,22.28326481647363
653,0.0
1722,12174.654396906482
1725,0.5467642243600003
1726,0.5184612878843234
1727,0.028302936475676403
1728,8.426995190759744
1729,13.737192909607188
1735,30.05444483522763
1957,8.087475499476382
1958,13.444779395325444
2,2, 7, 2, 0,15, 0.00,60.00,Monday
7,23.900000000000018
652,23.450000000000029
654,23.379834572241586
655,21.620768546525068
656,13.871462001642316
657,22.09974058771571
653,0.0
1722,11739.44085278501
1725,0.5467642243600003
1726,0.5033760024058578
1727,0.043388221954142148
1728,8.579836128192416
1729,13.700467944817895
1735,30.068709401953297
1957,8.08738738738738
1958,13.255127784964559
2,2, 7, 2, 0,16, 0.00,60.00,Monday
7,23.34083333333334
652,23.450000000000029
654,23.3790116646212
655,21.613525576699649
656,13.854271455666181
657,21.721354638848543
653,0.0
1722,11015.177259170765
1725,0.5467642243600003
1726,0.4967205879915086
1727,0.05004363636849145
1728,8.892217276936187
1729,13.69743044972759
1735,30.068709401953297
1957,8.35545597995687
1958,13.207782647740622
2,2, 7, 2, 0,17, 0.00,60.00,Monday
7,22.799999999999974
652,23.450000000000029
654,23.378492334493964
655,21.613938945833288
656,13.87950907893009
657,21.307791284670907
653,0.0
1722,10304.900283969147
1725,0.5467642243600003
1726,0.48684390841921745
1727,0.0599203159407827
1728,9.238813855320528
1729,13.734701653033998
1735,29.363688637591208
1957,8.632344320343432
1958,13.17535106643275
2,2, 7, 2, 0,18, 0.00,60.00,Monday
7,22.240833333333339
652,23.450000000000029
654,23.378268511609727
655,21.6183759225862
656,13.901278576442158
657,20.928536690482539
653,0.0
1722,9616.658672221527
1725,0.5467642243600003
1726,0.478551138463655
1727,0.06821308589634498
1728,9.551922763766452
1729,13.74797282840453
1735,30.204989825946677
1957,8.900501025001918
1958,13.143674965722307
2,2, 7, 2, 0,19, 0.00,60.00,Monday
7,21.140833333333334
652,23.450000000000029
654,23.378235061729887
655,21.625784437221527
656,13.989188692064666
657,19.682968951359805
653,0.0
1722,7601.749960279583
1725,0.5467642243600003
1726,0.4129913766138575
1727,0.13377284774614249
1728,10.579600000138593
1729,13.897518552572901
1735,30.93043275989871
1957,9.445457957957958
1958,12.81051525106395
2,2, 7, 2, 0,20, 0.00,60.00,Monday
7,19.430833333333334
652,23.450000000000029
654,23.37848308017555
655,21.655733125370874
656,14.17798582463948
657,18.949549916763226
653,0.0
1722,6607.173427848335
1725,0.5467642243600003
1726,0.42294841476579556
1727,0.12381580959420455
1728,11.200085755955062
1729,14.084426722960443
1735,30.689184459754466
1957,10.282941467624255
1958,13.214429564780144
2,2, 7, 2, 0,21, 0.00,60.00,Monday
7,17.486666666666669
652,23.450000000000029
654,23.37920094943589
655,21.6856278938033
656,14.321204862461958
657,18.44051271324519
653,0.0
1722,5924.123353040101
1725,0.5467642243600003
1726,0.4875270558108145
1727,0.0592371685491857
1728,11.62671912139918
1729,14.213194147808516
1735,30.023840493506289
1957,11.251895880622586
1958,13.885523799152372
2,2, 7, 2, 0,22, 0.00,60.00,Monday
7,16.395000000000004
652,23.450000000000029
654,23.380109662441446
655,21.707892363508443
656,14.421253071888124
657,18.109436187508036
653,0.0
1722,5485.647684057177
1725,0.5467642243600003
1726,0.5340013355389716
1727,0.01276288882102844
1728,11.907512011080323
1729,14.302742692429597
1735,30.08839878067604
1957,11.801046024227033
1958,14.243433370109769
2,2, 7, 2, 0,23, 0.00,60.00,Monday
7,15.540833333333332
652,23.450000000000029
654,23.380993671462293
655,21.739589677020267
656,14.710055544224027
657,18.00091926126776
653,0.0
1722,2768.359103134573
1725,0.26426937510733347
1726,0.26426937510733347
1727,0.0
1728,12.177939678902737
1729,13.386799520326388
1735,30.10877278363319
1957,12.131682378285568
1958,13.36333518275727
2,2, 7, 2, 0,24, 0.00,60.00,Monday
7,14.695000000000002
652,23.450000000000029
654,23.382366149351449
655,21.828288442278145
656,15.242548739661157
657,17.998477702933394
653,0.0
1722,2920.5910088487919
1725,0.23693116388933345
1726,0.23693116388933345
1727,0.0
1728,12.247157908319199
1729,13.522517104542708
1735,30.10877278363319
1957,12.199999999929477
1958,13.495794286345955
End of Data
 Number of Records Written=         768
