Program Version,EnergyPlus, Version 9.3.0-baff08990c, YMD=2021.12.16 05:56
1,5,Environment Title[],Latitude[deg],Longitude[deg],Time Zone[],Elevation[m]
2,8,Day of Simulation[],Month[],Day of Month[],DST Indicator[1=yes 0=no],Hour[],StartMinute[],EndMinute[],DayType
3,5,Cumulative Day of Simulation[],Month[],Day of Month[],DST Indicator[1=yes 0=no],DayType  ! When Daily Report Variables Requested
4,2,Cumulative Days of Simulation[],Month[]  ! When Monthly Report Variables Requested
5,1,Cumulative Days of Simulation[] ! When Run Period Report Variables Requested
6,1,Calendar Year of Simulation[] ! When Annual Report Variables Requested
1140,1,CORNER_CLASS_1_POD_1_ZN_1_FLR_1,Zone Mean Air Temperature [C] !Hourly
1141,1,MULT_CLASS_1_POD_1_ZN_1_FLR_1,Zone Mean Air Temperature [C] !Hourly
1142,1,CORRIDOR_POD_1_ZN_1_FLR_1,Zone Mean Air Temperature [C] !Hourly
1143,1,CORNER_CLASS_2_POD_1_ZN_1_FLR_1,Zone Mean Air Temperature [C] !Hourly
1144,1,MULT_CLASS_2_POD_1_ZN_1_FLR_1,Zone Mean Air Temperature [C] !Hourly
2426,1,CORNER_CLASS_1_POD_1_ZN_1_FLR_1_LOTEMP,Zone Radiant HVAC Pump Electric Power [W] !Hourly
2468,1,MULT_CLASS_1_POD_1_ZN_1_FLR_1_LOTEMP,Zone Radiant HVAC Pump Electric Power [W] !Hourly
2474,1,CORRIDOR_POD_1_ZN_1_FLR_1_LOTEMP,Zone Radiant HVAC Pump Electric Power [W] !Hourly
2480,1,CORNER_CLASS_2_POD_1_ZN_1_FLR_1_LOTEMP,Zone Radiant HVAC Pump Electric Power [W] !Hourly
2486,1,MULT_CLASS_2_POD_1_ZN_1_FLR_1_LOTEMP,Zone Radiant HVAC Pump Electric Power [W] !Hourly
2732,1,HP_RADSYS,Heat Pump Electric Power [W] !Hourly
2760,1,HOT WATER LOOP HW SUPPLY PUMP2,Pump Electric Power [W] !Hourly
End of Data Dictionary
1,RUNPERIOD 1,  30.00, -95.37,  -6.00,  29.00
2,1, 1,21, 0, 1, 0.00,60.00,Sunday
1140,21.005546733602498
1141,21.711416653767509
1142,21.863547254162876
1143,20.717038334475956
1144,21.45710082229406
2426,0.0
2468,0.0
2474,0.0
2480,0.0
2486,0.0
2732,0.0
2760,0.0
2,1, 1,21, 0, 2, 0.00,60.00,Sunday
1140,20.92296970969793
1141,21.659079347037435
1142,21.842681059527516
1143,20.643734714517345
1144,21.410993050393924
2426,0.0
2468,0.0
2474,0.0
2480,0.0
2486,0.0
2732,0.0
2760,0.0
2,1, 1,21, 0, 3, 0.00,60.00,Sunday
1140,20.828586943230197
1141,21.599497031931237
1142,21.818459696698637
1143,20.557371809163059
1144,21.36171832415404
2426,0.0
2468,0.0
2474,0.0
2480,0.0
2486,0.0
2732,0.0
2760,0.0
2,1, 1,21, 0, 4, 0.00,60.00,Sunday
1140,20.870135719060948
1141,21.645661637417925
1142,21.782363650280919
1143,20.601938488721115
1144,21.412266906852204
2426,0.0
2468,0.0
2474,0.0
2480,0.0
2486,0.0
2732,0.0
2760,0.0
2,1, 1,21, 0, 5, 0.00,60.00,Sunday
1140,20.83384197851371
1141,21.626836241898859
1142,21.738496217118219
1143,20.571348368874767
1144,21.402296057822473
2426,0.0
2468,0.0
2474,0.0
2480,0.0
2486,0.0
2732,0.0
2760,0.0
2,1, 1,21, 0, 6, 0.00,60.00,Sunday
1140,20.744481172688798
1141,21.567451996506784
1142,21.689486310410329
1143,20.488499516781688
1144,21.348967417598609
2426,0.0
2468,0.0
2474,0.0
2480,0.0
2486,0.0
2732,0.0
2760,0.0
2,1, 1,21, 0, 7, 0.00,60.00,Sunday
1140,20.60554979195468
1141,21.47131179336781
1142,21.629754801073088
1143,20.356412738844765
1144,21.256250468798485
2426,0.0
2468,0.0
2474,0.0
2480,0.0
2486,0.0
2732,0.0
2760,0.0
2,1, 1,21, 0, 8, 0.00,60.00,Sunday
1140,20.23791406580178
1141,20.965863454858597
1142,21.1677439342996
1143,20.016201897500566
1144,20.782253696100047
2426,100.0
2468,100.0
2474,100.0
2480,100.0
2486,100.0
2732,10060.461595354263
2760,817.4059648084763
2,1, 1,21, 0, 9, 0.00,60.00,Sunday
1140,20.350859609774735
1141,20.948191855618945
1142,21.137985658912006
1143,20.14360848948338
1144,20.785434910089344
2426,0.0
2468,0.0
2474,0.0
2480,0.0
2486,0.0
2732,0.0
2760,0.0
2,1, 1,21, 0,10, 0.00,60.00,Sunday
1140,20.430375478805705
1141,21.006493807823064
1142,21.17289728185168
1143,20.229702874132444
1144,20.836016085276037
2426,0.0
2468,0.0
2474,0.0
2480,0.0
2486,0.0
2732,0.0
2760,0.0
2,1, 1,21, 0,11, 0.00,60.00,Sunday
1140,20.525037764580508
1141,21.072555639203839
1142,21.197168449214496
1143,20.308066794863686
1144,20.887879719674417
2426,0.0
2468,0.0
2474,0.0
2480,0.0
2486,0.0
2732,0.0
2760,0.0
2,1, 1,21, 0,12, 0.00,60.00,Sunday
1140,20.784927355493975
1141,21.268239998145299
1142,21.261342329950304
1143,20.501798598282755
1144,21.01399343742819
2426,0.0
2468,0.0
2474,0.0
2480,0.0
2486,0.0
2732,0.0
2760,0.0
2,1, 1,21, 0,13, 0.00,60.00,Sunday
1140,21.058974636383597
1141,21.49507423596797
1142,21.37498121932857
1143,20.711015359563566
1144,21.163926319001967
2426,0.0
2468,0.0
2474,0.0
2480,0.0
2486,0.0
2732,0.0
2760,0.0
2,1, 1,21, 0,14, 0.00,60.00,Sunday
1140,21.189864672482849
1141,21.598539729201499
1142,21.455635214869415
1143,20.799518071110108
1144,21.222046884825056
2426,0.0
2468,0.0
2474,0.0
2480,0.0
2486,0.0
2732,0.0
2760,0.0
2,1, 1,21, 0,15, 0.00,60.00,Sunday
1140,21.20919775232283
1141,21.60541830316989
1142,21.488685326818229
1143,20.804445079880524
1144,21.212561167222405
2426,0.0
2468,0.0
2474,0.0
2480,0.0
2486,0.0
2732,0.0
2760,0.0
2,1, 1,21, 0,16, 0.00,60.00,Sunday
1140,21.15210808284475
1141,21.539689733935569
1142,21.461826400794285
1143,20.738855203648517
1144,21.14387726299025
2426,0.0
2468,0.0
2474,0.0
2480,0.0
2486,0.0
2732,0.0
2760,0.0
2,1, 1,21, 0,17, 0.00,60.00,Sunday
1140,21.130006808806109
1141,21.477078493820338
1142,21.417213277601478
1143,20.7108673259328
1144,21.09300328397717
2426,0.0
2468,0.0
2474,0.0
2480,0.0
2486,0.0
2732,0.0
2760,0.0
2,1, 1,21, 0,18, 0.00,60.00,Sunday
1140,21.11134548127583
1141,21.37087313497836
1142,21.346392692279627
1143,20.70346030362207
1144,21.015045742986975
2426,0.0
2468,0.0
2474,0.0
2480,0.0
2486,0.0
2732,0.0
2760,0.0
2,1, 1,21, 0,19, 0.00,60.00,Sunday
1140,20.84387416753942
1141,21.24440803822203
1142,21.23561915216685
1143,20.503092729449315
1144,20.925824807750769
2426,100.0
2468,100.0
2474,100.0
2480,100.0
2486,100.0
2732,8925.018286335693
2760,817.4059648084763
2,1, 1,21, 0,20, 0.00,60.00,Sunday
1140,20.8037337033307
1141,21.226791281572507
1142,21.224655058189489
1143,20.491126440537877
1144,20.935953217304957
2426,0.0
2468,0.0
2474,0.0
2480,0.0
2486,0.0
2732,0.0
2760,0.0
2,1, 1,21, 0,21, 0.00,60.00,Sunday
1140,20.80523328316685
1141,21.231329092266326
1142,21.23460399356733
1143,20.50831650129622
1144,20.960382195814078
2426,100.0
2468,100.0
2474,100.0
2480,100.0
2486,100.0
2732,10349.871101367738
2760,817.4059648084763
2,1, 1,21, 0,22, 0.00,60.00,Sunday
1140,21.28020519538953
1141,21.793405828131165
1142,21.780591545373409
1143,20.967865466145683
1144,21.51683099214791
2426,0.0
2468,0.0
2474,0.0
2480,0.0
2486,0.0
2732,0.0
2760,0.0
2,1, 1,21, 0,23, 0.00,60.00,Sunday
1140,21.283655555885934
1141,21.894796489600418
1142,21.929951060183876
1143,20.97993026282239
1144,21.63004217157999
2426,0.0
2468,0.0
2474,0.0
2480,0.0
2486,0.0
2732,0.0
2760,0.0
2,1, 1,21, 0,24, 0.00,60.00,Sunday
1140,21.150243374984389
1141,21.81404838216793
1142,21.912883594459843
1143,20.852421712450018
1144,21.55348140765286
2426,0.0
2468,0.0
2474,0.0
2480,0.0
2486,0.0
2732,0.0
2760,0.0
2,2, 1,22, 0, 1, 0.00,60.00,Monday
1140,21.06497632160802
1141,21.7385359085822
1142,21.889070065957008
1143,20.785989491793126
1144,21.492268343330396
2426,100.0
2468,100.0
2474,100.0
2480,100.0
2486,100.0
2732,7258.745777412475
2760,817.4059648084763
2,2, 1,22, 0, 2, 0.00,60.00,Monday
1140,21.285135358839108
1141,21.849270133438105
1142,21.991998078010565
1143,21.050630751036189
1144,21.64413724949361
2426,100.0
2468,100.0
2474,60.0
2480,100.0
2486,100.0
2732,6096.599058965867
2760,817.4059648084763
2,2, 1,22, 0, 3, 0.00,60.00,Monday
1140,21.5717362634956
1141,22.010271475593137
1142,22.07725052407702
1143,21.38500927573557
1144,21.85464534360445
2426,100.0
2468,50.0
2474,0.0
2480,100.0
2486,100.0
2732,3947.9488628824899
2760,817.4059648084763
2,2, 1,22, 0, 4, 0.00,60.00,Monday
1140,21.798185392449505
1141,22.049754811138226
1142,22.09757319124814
1143,21.658875028976789
1144,22.015891067438149
2426,100.0
2468,10.0
2474,0.0
2480,100.0
2486,15.0
2732,1335.2975516127038
2760,817.4059648084763
2,2, 1,22, 0, 5, 0.00,60.00,Monday
1140,21.861684092979965
1141,21.97370181877921
1142,22.079714529664679
1143,21.7569137711078
1144,21.989946315377936
2426,100.0
2468,95.0
2474,0.0
2480,100.0
2486,80.0
2732,3963.0341862832949
2760,817.4059648084763
2,2, 1,22, 0, 6, 0.00,60.00,Monday
1140,21.928125108108565
1141,21.994781647444506
1142,22.049574738588228
1143,21.847568241102637
1144,21.993912838427425
2426,100.0
2468,45.0
2474,0.0
2480,100.0
2486,50.0
2732,2305.6090769809045
2760,817.4059648084763
2,2, 1,22, 0, 7, 0.00,60.00,Monday
1140,21.88878848056674
1141,21.949159102168666
1142,22.014737824582974
1143,21.824667495166258
1144,21.95468747416714
2426,100.0
2468,100.0
2474,0.0
2480,100.0
2486,100.0
2732,4195.037961813155
2760,817.4059648084763
2,2, 1,22, 0, 8, 0.00,60.00,Monday
1140,22.103562437386907
1141,22.011588990944064
1142,21.788550584454069
1143,22.073485800753227
1144,22.05969925438745
2426,20.0
2468,45.0
2474,100.0
2480,30.0
2486,20.0
2732,2049.2155328193668
2760,817.4059648084763
2,2, 1,22, 0, 9, 0.00,60.00,Monday
1140,23.77121062987278
1141,23.81816163599097
1142,22.09973519531824
1143,23.73442223378836
1144,23.750484744639726
2426,91.66666666666666
2468,90.0
2474,35.0
2480,90.0
2486,90.0
2732,192.67137507877482
2760,286.0920876829665
2,2, 1,22, 0,10, 0.00,60.00,Monday
1140,23.99977576101215
1141,24.52316731667777
1142,22.515809688299677
1143,23.999719079985117
1144,23.999736570636764
2426,100.0
2468,100.0
2474,0.0
2480,100.0
2486,100.0
2732,0.0
2760,0.0
2,2, 1,22, 0,11, 0.00,60.00,Monday
1140,24.00606121715145
1141,24.964076795227507
1142,22.805535958792125
1143,23.999485107644725
1144,23.99952084521601
2426,100.0
2468,100.0
2474,0.0
2480,100.0
2486,100.0
2732,0.0
2760,0.0
2,2, 1,22, 0,12, 0.00,60.00,Monday
1140,24.150795192631528
1141,25.289017863809485
1142,23.038427939809688
1143,23.999394077664659
1144,23.999432855343579
2426,100.0
2468,100.0
2474,65.0
2480,100.0
2486,100.0
2732,0.0
2760,0.0
2,2, 1,22, 0,13, 0.00,60.00,Monday
1140,24.28413739685445
1141,25.48900742856229
1142,23.15479772718579
1143,23.999363625292177
1144,23.999396608629888
2426,100.0
2468,100.0
2474,100.0
2480,100.0
2486,100.0
2732,0.0
2760,0.0
2,2, 1,22, 0,14, 0.00,60.00,Monday
1140,24.325523824504228
1141,25.610985722685166
1142,23.165384506974765
1143,23.999371253818489
1144,23.99937939499929
2426,100.0
2468,100.0
2474,100.0
2480,100.0
2486,100.0
2732,0.0
2760,0.0
2,2, 1,22, 0,15, 0.00,60.00,Monday
1140,24.363146550058909
1141,25.566964182230575
1142,23.130734343733484
1143,23.999357257659626
1144,23.999351649620885
2426,100.0
2468,100.0
2474,100.0
2480,100.0
2486,100.0
2732,0.0
2760,0.0
2,2, 1,22, 0,16, 0.00,60.00,Monday
1140,24.47883858194441
1141,25.334660496228559
1142,23.089431995245044
1143,23.99943698645631
1144,23.99941583385421
2426,100.0
2468,100.0
2474,100.0
2480,100.0
2486,100.0
2732,0.0
2760,0.0
2,2, 1,22, 0,17, 0.00,60.00,Monday
1140,24.015484904976675
1141,24.135511458527735
1142,22.94111343349818
1143,23.567969028499058
1144,23.255779093868225
2426,100.0
2468,100.0
2474,35.0
2480,100.0
2486,90.0
2732,0.0
2760,0.0
2,2, 1,22, 0,18, 0.00,60.00,Monday
1140,23.695019343408089
1141,23.63716435191091
1142,22.50383458620911
1143,22.504208954768495
1144,22.2138323357758
2426,100.0
2468,100.0
2474,0.0
2480,15.0
2486,20.0
2732,238.82118548131676
2760,163.48119296169518
2,2, 1,22, 0,19, 0.00,60.00,Monday
1140,22.663252392547564
1141,23.058953096918978
1142,22.060140883060045
1143,21.726891723357029
1144,21.85109616641865
2426,15.0
2468,65.0
2474,30.0
2480,95.0
2486,100.0
2732,3850.911685001206
2760,817.4059648084763
2,2, 1,22, 0,20, 0.00,60.00,Monday
1140,21.99819899424812
1141,22.569431533710639
1142,21.753430105061758
1143,21.4557095105721
1144,21.786588645214768
2426,45.0
2468,0.0
2474,100.0
2480,100.0
2486,100.0
2732,4860.6704144215459
2760,817.4059648084763
2,2, 1,22, 0,21, 0.00,60.00,Monday
1140,21.598239423040949
1141,22.172230700047807
1142,21.581514060763653
1143,21.32479138925173
1144,21.680410514970548
2426,100.0
2468,0.0
2474,100.0
2480,100.0
2486,100.0
2732,5143.546422540866
2760,817.4059648084763
2,2, 1,22, 0,22, 0.00,60.00,Monday
1140,21.28045007051626
1141,21.819677754452216
1142,21.92939805815082
1143,21.202117587837326
1144,21.602695388024928
2426,100.0
2468,90.0
2474,70.0
2480,100.0
2486,100.0
2732,6997.246394974328
2760,817.4059648084763
2,2, 1,22, 0,23, 0.00,60.00,Monday
1140,21.318456902216317
1141,21.662536882347518
1142,22.019884345130749
1143,21.330293473012419
1144,21.683593783718629
2426,100.0
2468,100.0
2474,0.0
2480,100.0
2486,100.0
2732,6295.542472764024
2760,817.4059648084763
2,2, 1,22, 0,24, 0.00,60.00,Monday
1140,21.57675842263833
1141,21.77577677351301
1142,22.000474532988876
1143,21.618969513548146
1144,21.89832081600636
2426,100.0
2468,100.0
2474,60.0
2480,100.0
2486,100.0
2732,5886.157383922495
2760,817.4059648084763
2,3, 1,23, 0, 1, 0.00,60.00,Tuesday
1140,21.670825292184909
1141,21.83825529725282
1142,22.02915830466943
1143,21.71160940566602
1144,21.986900563980286
2426,0.0
2468,0.0
2474,0.0
2480,0.0
2486,0.0
2732,0.0
2760,0.0
2,3, 1,23, 0, 2, 0.00,60.00,Tuesday
1140,21.59686276299405
1141,21.783609658826536
1142,21.997912155380236
1143,21.644679969475847
1144,21.951077587870097
2426,0.0
2468,0.0
2474,0.0
2480,0.0
2486,0.0
2732,0.0
2760,0.0
2,3, 1,23, 0, 3, 0.00,60.00,Tuesday
1140,21.465674857133299
1141,21.688777806915426
1142,21.92853838762278
1143,21.524518507417
1144,21.873599576000509
2426,0.0
2468,0.0
2474,0.0
2480,0.0
2486,0.0
2732,0.0
2760,0.0
2,3, 1,23, 0, 4, 0.00,60.00,Tuesday
1140,21.151824076198716
1141,21.47169732113343
1142,21.835890871335864
1143,21.21323589710643
1144,21.657606857128969
2426,0.0
2468,0.0
2474,0.0
2480,0.0
2486,0.0
2732,0.0
2760,0.0
2,3, 1,23, 0, 5, 0.00,60.00,Tuesday
1140,20.88757572432082
1141,21.287759107673887
1142,21.736763389328279
1143,20.95488090117031
1144,21.480106960161974
2426,0.0
2468,0.0
2474,0.0
2480,0.0
2486,0.0
2732,0.0
2760,0.0
2,3, 1,23, 0, 6, 0.00,60.00,Tuesday
1140,20.785320587399516
1141,21.212321918343997
1142,21.644175662705277
1143,20.8606560103043
1144,21.416380370803389
2426,0.0
2468,0.0
2474,0.0
2480,0.0
2486,0.0
2732,0.0
2760,0.0
2,3, 1,23, 0, 7, 0.00,60.00,Tuesday
1140,20.745410807670827
1141,21.196608809206745
1142,21.608094178842806
1143,20.82738194087115
1144,21.41363580421363
2426,100.0
2468,100.0
2474,100.0
2480,100.0
2486,100.0
2732,10229.253079606704
2760,817.4059648084763
2,3, 1,23, 0, 8, 0.00,60.00,Tuesday
1140,20.965544211042489
1141,21.197245559363183
1142,21.45434229402064
1143,21.037313108468
1144,21.448429395087353
2426,100.0
2468,100.0
2474,100.0
2480,100.0
2486,100.0
2732,17205.125672404283
2760,817.4059648084763
2,3, 1,23, 0, 9, 0.00,60.00,Tuesday
1140,23.55727480788665
1141,23.651286887584015
1142,22.181661439435297
1143,23.5081861011052
1144,23.67496107495141
2426,90.0
2468,92.5
2474,35.0
2480,90.0
2486,88.33333333333333
2732,1539.2018447817569
2760,286.0920876829665
2,3, 1,23, 0,10, 0.00,60.00,Tuesday
1140,23.9997045272584
1141,24.51793242111078
1142,22.790707321945246
1143,23.99959631071355
1144,24.008230320148436
2426,100.0
2468,100.0
2474,0.0
2480,100.0
2486,100.0
2732,0.0
2760,0.0
2,3, 1,23, 0,11, 0.00,60.00,Tuesday
1140,23.999576257955974
1141,24.948465134576006
1142,23.076429062372829
1143,23.99937456307939
1144,23.999523636853366
2426,100.0
2468,100.0
2474,80.0
2480,100.0
2486,100.0
2732,0.0
2760,0.0
2,3, 1,23, 0,12, 0.00,60.00,Tuesday
1140,24.119937884691724
1141,25.285992745948137
1142,23.21653333332585
1143,23.999467857666664
1144,23.999447459992675
2426,0.0
2468,0.0
2474,0.0
2480,0.0
2486,0.0
2732,0.0
2760,0.0
2,3, 1,23, 0,13, 0.00,60.00,Tuesday
1140,24.343582485458798
1141,25.58416844009309
1142,23.377870128692388
1143,23.999287303006559
1144,23.999312269576298
2426,100.0
2468,100.0
2474,100.0
2480,100.0
2486,100.0
2732,0.0
2760,0.0
2,3, 1,23, 0,14, 0.00,60.00,Tuesday
1140,24.39107579628285
1141,25.708512989750909
1142,23.44514947404651
1143,23.99943358561402
1144,23.99938286865481
2426,0.0
2468,0.0
2474,0.0
2480,0.0
2486,0.0
2732,0.0
2760,0.0
2,3, 1,23, 0,15, 0.00,60.00,Tuesday
1140,24.487077564866487
1141,25.711678936104968
1142,23.536598612268287
1143,23.99936802392898
1144,23.99936687182829
2426,0.0
2468,0.0
2474,0.0
2480,0.0
2486,0.0
2732,0.0
2760,0.0
2,3, 1,23, 0,16, 0.00,60.00,Tuesday
1140,24.723608546864296
1141,25.60329516017901
1142,23.661240098731537
1143,23.999363115653197
1144,23.999380212285723
2426,0.0
2468,0.0
2474,0.0
2480,0.0
2486,0.0
2732,0.0
2760,0.0
2,3, 1,23, 0,17, 0.00,60.00,Tuesday
1140,24.057124163184857
1141,24.377368871802476
1142,23.689539843985299
1143,23.999665540188688
1144,23.999691295071167
2426,0.0
2468,0.0
2474,0.0
2480,0.0
2486,0.0
2732,0.0
2760,0.0
2,3, 1,23, 0,18, 0.00,60.00,Tuesday
1140,23.99949137848195
1141,23.999619177623264
1142,23.323268537844478
1143,23.56083614354578
1144,23.31598486469658
2426,100.0
2468,100.0
2474,100.0
2480,100.0
2486,100.0
2732,0.0
2760,0.0
2,3, 1,23, 0,19, 0.00,60.00,Tuesday
1140,23.830515798591369
1141,23.973910486090057
1142,22.868336700091107
1143,22.895039253778273
1144,22.855515866988019
2426,100.0
2468,100.0
2474,25.0
2480,35.0
2486,5.0
2732,0.0
2760,0.0
2,3, 1,23, 0,20, 0.00,60.00,Tuesday
1140,23.27020647438466
1141,23.679423892699626
1142,22.566261823535255
1143,22.48888148278828
1144,22.66996087298255
2426,100.0
2468,100.0
2474,0.0
2480,0.0
2486,0.0
2732,0.0
2760,0.0
2,3, 1,23, 0,21, 0.00,60.00,Tuesday
1140,22.787248820429288
1141,23.314074831215238
1142,22.384185505259226
1143,22.278402194424538
1144,22.575885174534993
2426,5.0
2468,100.0
2474,0.0
2480,0.0
2486,0.0
2732,0.0
2760,0.0
2,3, 1,23, 0,22, 0.00,60.00,Tuesday
1140,22.464888895724493
1141,23.100865418904186
1142,22.678185738064117
1143,22.041634501098764
1144,22.53728991787557
2426,0.0
2468,0.0
2474,0.0
2480,0.0
2486,0.0
2732,0.0
2760,0.0
2,3, 1,23, 0,23, 0.00,60.00,Tuesday
1140,22.196260876996474
1141,22.91107044001027
1142,22.73225268750579
1143,21.817988833612917
1144,22.441136981963049
2426,0.0
2468,0.0
2474,0.0
2480,0.0
2486,0.0
2732,0.0
2760,0.0
2,3, 1,23, 0,24, 0.00,60.00,Tuesday
1140,22.03597388091341
1141,22.78325573011484
1142,22.646793760969915
1143,21.702229295843837
1144,22.381692596488496
2426,0.0
2468,0.0
2474,0.0
2480,0.0
2486,0.0
2732,0.0
2760,0.0
End of Data
 Number of Records Written=         864
