Program Version,EnergyPlus, Version 9.3.0-baff08990c, YMD=2021.12.09 05:15
1,5,Environment Title[],Latitude[deg],Longitude[deg],Time Zone[],Elevation[m]
2,8,Day of Simulation[],Month[],Day of Month[],DST Indicator[1=yes 0=no],Hour[],StartMinute[],EndMinute[],DayType
3,5,Cumulative Day of Simulation[],Month[],Day of Month[],DST Indicator[1=yes 0=no],DayType  ! When Daily Report Variables Requested
4,2,Cumulative Days of Simulation[],Month[]  ! When Monthly Report Variables Requested
5,1,Cumulative Days of Simulation[] ! When Run Period Report Variables Requested
6,1,Calendar Year of Simulation[] ! When Annual Report Variables Requested
1140,1,CORNER_CLASS_1_POD_1_ZN_1_FLR_1,Zone Mean Air Temperature [C] !Hourly
1141,1,MULT_CLASS_1_POD_1_ZN_1_FLR_1,Zone Mean Air Temperature [C] !Hourly
1142,1,CORRIDOR_POD_1_ZN_1_FLR_1,Zone Mean Air Temperature [C] !Hourly
1143,1,CORNER_CLASS_2_POD_1_ZN_1_FLR_1,Zone Mean Air Temperature [C] !Hourly
1144,1,MULT_CLASS_2_POD_1_ZN_1_FLR_1,Zone Mean Air Temperature [C] !Hourly
2426,1,CORNER_CLASS_1_POD_1_ZN_1_FLR_1_LOTEMP,Zone Radiant HVAC Pump Electric Power [W] !Hourly
2468,1,MULT_CLASS_1_POD_1_ZN_1_FLR_1_LOTEMP,Zone Radiant HVAC Pump Electric Power [W] !Hourly
2474,1,CORRIDOR_POD_1_ZN_1_FLR_1_LOTEMP,Zone Radiant HVAC Pump Electric Power [W] !Hourly
2480,1,CORNER_CLASS_2_POD_1_ZN_1_FLR_1_LOTEMP,Zone Radiant HVAC Pump Electric Power [W] !Hourly
2486,1,MULT_CLASS_2_POD_1_ZN_1_FLR_1_LOTEMP,Zone Radiant HVAC Pump Electric Power [W] !Hourly
2732,1,HP_RADSYS,Heat Pump Electric Power [W] !Hourly
2759,1,HOT WATER LOOP HW SUPPLY PUMP2,Pump Electric Energy [J] !Hourly
End of Data Dictionary
1,RUNPERIOD 1,  40.78, -73.97,  -5.00,  40.00
2,1, 1, 1, 0, 1, 0.00,60.00,Holiday
1140,21.89981131372414
1141,21.984595230145314
1142,22.400923035610277
1143,21.901999870477434
1144,22.00204370710545
2426,100.0
2468,85.0
2474,0.0
2480,100.0
2486,50.0
2732,2618.528857531944
2759,2762652.719044462
2,1, 1, 1, 0, 2, 0.00,60.00,Holiday
1140,21.905514793602288
1141,21.997034044796615
1142,22.37856910503469
1143,21.882000012271708
1144,21.96262707724261
2426,100.0
2468,40.0
2474,0.0
2480,100.0
2486,100.0
2732,2714.8571950574767
2759,2762652.719044462
2,1, 1, 1, 0, 3, 0.00,60.00,Holiday
1140,21.924081737574743
1141,21.997765026356224
1142,22.360197726591609
1143,21.889842601080738
1144,22.000761267903834
2426,90.0
2468,60.0
2474,0.0
2480,100.0
2486,55.0
2732,2451.376638028934
2759,2762652.719044462
2,1, 1, 1, 0, 4, 0.00,60.00,Holiday
1140,22.078469991486228
1141,22.098977673337964
1142,22.34843922598211
1143,22.05843988145226
1144,22.095809132466589
2426,0.0
2468,0.0
2474,0.0
2480,10.0
2486,0.0
2732,27.399696865706177
2759,276265.2719044462
2,1, 1, 1, 0, 5, 0.00,60.00,Holiday
1140,22.052801518368093
1141,22.086962508059498
1142,22.319666460503659
1143,22.04404647861481
1144,22.082598967207397
2426,5.0
2468,0.0
2474,0.0
2480,10.0
2486,0.0
2732,72.28828808170097
2759,276265.2719044462
2,1, 1, 1, 0, 6, 0.00,60.00,Holiday
1140,21.96010760590132
1141,22.00332670163816
1142,22.26890304927403
1143,21.96204626116198
1144,22.000478396578836
2426,100.0
2468,45.0
2474,0.0
2480,100.0
2486,50.0
2732,2200.5496389133757
2759,2762652.719044462
2,1, 1, 1, 0, 7, 0.00,60.00,Holiday
1140,22.022198321034666
1141,22.020087912931765
1142,22.216224562253215
1143,22.023917793213007
1144,22.01758948951451
2426,30.0
2468,35.0
2474,0.0
2480,35.0
2486,35.0
2732,1322.384251489267
2759,966928.4516655617
2,1, 1, 1, 0, 8, 0.00,60.00,Holiday
1140,21.507518599802745
1141,21.4851965078794
1142,21.653719791019243
1143,21.507382495095773
1144,21.47127137033587
2426,95.0
2468,95.0
2474,90.0
2480,95.0
2486,95.0
2732,5399.274905668748
2759,2624520.0830922389
2,1, 1, 1, 0, 9, 0.00,60.00,Holiday
1140,21.525480397852239
1141,21.492279762137455
1142,21.560432157982459
1143,21.401965709320476
1144,21.345988349188397
2426,100.0
2468,100.0
2474,100.0
2480,100.0
2486,100.0
2732,5784.125410616056
2759,2762652.719044462
2,1, 1, 1, 0,10, 0.00,60.00,Holiday
1140,22.212828261305164
1141,22.183420672290948
1142,21.71641858934116
1143,21.59129038165348
1144,21.50857322820721
2426,30.0
2468,35.0
2474,100.0
2480,100.0
2486,100.0
2732,3491.6906357130794
2759,2762652.719044462
2,1, 1, 1, 0,11, 0.00,60.00,Holiday
1140,22.935662143709334
1141,22.99098615152461
1142,22.00638720585769
1143,21.747253506562836
1144,21.691028846769535
2426,40.0
2468,45.0
2474,55.0
2480,100.0
2486,100.0
2732,2153.025562898375
2759,2762652.719044462
2,1, 1, 1, 0,12, 0.00,60.00,Holiday
1140,23.241654350367904
1141,23.45614063905466
1142,22.27483830661152
1143,21.930259801866414
1144,21.894436675316269
2426,100.0
2468,100.0
2474,0.0
2480,80.0
2486,95.0
2732,1487.0395167517948
2759,2624520.0830922389
2,1, 1, 1, 0,13, 0.00,60.00,Holiday
1140,23.536247054549034
1141,23.922617403503474
1142,22.488211169937
1143,22.224293686721077
1144,22.170575510099377
2426,100.0
2468,100.0
2474,0.0
2480,0.0
2486,0.0
2732,0.0
2759,0.0
2,1, 1, 1, 0,14, 0.00,60.00,Holiday
1140,23.640849988219509
1141,24.178997789472779
1142,22.65311629045677
1143,22.35394140473749
1144,22.3230001407757
2426,100.0
2468,100.0
2474,0.0
2480,0.0
2486,0.0
2732,0.0
2759,0.0
2,1, 1, 1, 0,15, 0.00,60.00,Holiday
1140,23.78368081790413
1141,24.01637128196416
1142,22.762891437045533
1143,22.655300305133176
1144,22.3032647878512
2426,100.0
2468,100.0
2474,0.0
2480,0.0
2486,0.0
2732,0.0
2759,0.0
2,1, 1, 1, 0,16, 0.00,60.00,Holiday
1140,23.601165599943508
1141,23.47895196656166
1142,22.788083634125475
1143,22.888113117024557
1144,22.180725542283974
2426,100.0
2468,100.0
2474,0.0
2480,0.0
2486,0.0
2732,0.0
2759,0.0
2,1, 1, 1, 0,17, 0.00,60.00,Holiday
1140,22.341072088925267
1141,22.4592306859763
1142,22.569365738779156
1143,22.4403490892493
1144,21.884328140360187
2426,50.0
2468,15.0
2474,0.0
2480,0.0
2486,80.0
2732,1478.8607934858163
2759,2210122.1752355697
2,1, 1, 1, 0,18, 0.00,60.00,Holiday
1140,21.117133601510319
1141,21.630214652656087
1142,22.11220331448119
1143,21.82291872743207
1144,21.697480273539445
2426,100.0
2468,100.0
2474,15.0
2480,95.0
2486,100.0
2732,5490.420966576715
2759,2762652.719044462
2,1, 1, 1, 0,19, 0.00,60.00,Holiday
1140,20.93574660372042
1141,21.438779491354436
1142,21.850822675320808
1143,21.695959629224939
1144,21.680003455650515
2426,100.0
2468,100.0
2474,100.0
2480,100.0
2486,100.0
2732,6004.145100398491
2759,2762652.719044462
2,1, 1, 1, 0,20, 0.00,60.00,Holiday
1140,20.947254771029895
1141,21.386801024270196
1142,21.774815560372806
1143,21.589735937870875
1144,21.642463203160547
2426,100.0
2468,100.0
2474,100.0
2480,100.0
2486,100.0
2732,5888.614667208069
2759,2762652.719044462
2,1, 1, 1, 0,21, 0.00,60.00,Holiday
1140,21.054387302758859
1141,21.413844051633999
1142,21.770375449107669
1143,21.546031058223116
1144,21.632071215667268
2426,100.0
2468,100.0
2474,100.0
2480,100.0
2486,100.0
2732,5646.121689618325
2759,2762652.719044462
2,1, 1, 1, 0,22, 0.00,60.00,Holiday
1140,21.610428479328669
1141,21.986367289672836
1142,22.32702076778989
1143,21.991609544341438
1144,22.16661861802409
2426,100.0
2468,40.0
2474,15.0
2480,35.0
2486,20.0
2732,1838.8912593187422
2759,2762652.719044462
2,1, 1, 1, 0,23, 0.00,60.00,Holiday
1140,21.811538063896977
1141,22.09039390606894
1142,22.48867298127082
1143,21.988807074224494
1144,22.24520761063775
2426,100.0
2468,0.0
2474,0.0
2480,50.0
2486,0.0
2732,576.5550988512499
2759,2762652.719044462
2,1, 1, 1, 0,24, 0.00,60.00,Holiday
1140,21.848502980567056
1141,21.982305365863394
1142,22.458933666272153
1143,21.895768504708618
1144,22.117489009217694
2426,100.0
2468,80.0
2474,0.0
2480,100.0
2486,0.0
2732,2070.353978577557
2759,2762652.719044462
2,2, 1, 2, 0, 1, 0.00,60.00,Monday
1140,21.824362992837874
1141,21.950905079710045
1142,22.388534227434236
1143,21.828726113970345
1144,21.957235015762188
2426,100.0
2468,100.0
2474,0.0
2480,100.0
2486,65.0
2732,3404.7831859203827
2759,2762652.719044462
2,2, 1, 2, 0, 2, 0.00,60.00,Monday
1140,21.761818440784379
1141,21.93524910046639
1142,22.296640954744814
1143,21.741898701143108
1144,21.862105987162545
2426,100.0
2468,100.0
2474,0.0
2480,100.0
2486,100.0
2732,3928.0790523666184
2759,2762652.719044462
2,2, 1, 2, 0, 3, 0.00,60.00,Monday
1140,21.81284858034192
1141,21.985874938727144
1142,22.222195489700846
1143,21.777471783138844
1144,21.902497701765406
2426,100.0
2468,75.0
2474,0.0
2480,100.0
2486,100.0
2732,3348.9519097738145
2759,2762652.719044462
2,2, 1, 2, 0, 4, 0.00,60.00,Monday
1140,21.785240997153239
1141,21.962005667950597
1142,22.149282162389704
1143,21.742358552959837
1144,21.897850742415959
2426,100.0
2468,100.0
2474,0.0
2480,100.0
2486,100.0
2732,3719.451988083253
2759,2762652.719044462
2,2, 1, 2, 0, 5, 0.00,60.00,Monday
1140,21.86431334527497
1141,22.025877606914827
1142,22.090886367360043
1143,21.816141486377526
1144,21.964976490727009
2426,100.0
2468,25.0
2474,0.0
2480,100.0
2486,85.0
2732,2271.8986091675394
2759,2762652.719044462
2,2, 1, 2, 0, 6, 0.00,60.00,Monday
1140,21.895539033235175
1141,21.971944932162264
1142,22.032866257800707
1143,21.845280115211858
1144,21.974204865938185
2426,100.0
2468,55.0
2474,5.0
2480,100.0
2486,55.0
2732,2286.602606213067
2759,2762652.719044462
2,2, 1, 2, 0, 7, 0.00,60.00,Monday
1140,21.764698679126867
1141,21.85861805584389
1142,21.979472402230955
1143,21.715772467495616
1144,21.86564636684424
2426,100.0
2468,100.0
2474,100.0
2480,100.0
2486,100.0
2732,4347.745722506572
2759,2762652.719044462
2,2, 1, 2, 0, 8, 0.00,60.00,Monday
1140,21.818058378415317
1141,21.749213516113664
1142,21.599851217312727
1143,21.743298291240675
1144,21.734182056324724
2426,100.0
2468,100.0
2474,100.0
2480,100.0
2486,100.0
2732,4588.0007680506309
2759,2762652.719044462
2,2, 1, 2, 0, 9, 0.00,60.00,Monday
1140,23.682441047878308
1141,23.68087380644061
1142,21.87774792025108
1143,23.504504976866664
1144,23.56880077891516
2426,91.66666666666666
2468,91.66666666666666
2474,70.0
2480,85.0
2486,85.0
2732,520.8340956485638
2759,1933856.9033311234
2,2, 1, 2, 0,10, 0.00,60.00,Monday
1140,23.99974800372045
1141,24.354496673497537
1142,22.372360942959327
1143,23.999727777786874
1144,23.999740168628393
2426,100.0
2468,100.0
2474,0.0
2480,100.0
2486,100.0
2732,0.0
2759,0.0
2,2, 1, 2, 0,11, 0.00,60.00,Monday
1140,24.03154913132007
1141,25.12235251817873
1142,22.757510502903484
1143,23.99943293067933
1144,23.999520729703425
2426,100.0
2468,100.0
2474,0.0
2480,100.0
2486,100.0
2732,0.0
2759,0.0
2,2, 1, 2, 0,12, 0.00,60.00,Monday
1140,24.333789154630428
1141,25.68775096490803
1142,23.06481998753657
1143,23.99943318199049
1144,24.001979525187588
2426,100.0
2468,100.0
2474,75.0
2480,100.0
2486,100.0
2732,0.0
2759,0.0
2,2, 1, 2, 0,13, 0.00,60.00,Monday
1140,24.443257232502103
1141,25.907015876187434
1142,23.204865761492326
1143,23.999420564634894
1144,23.999475102698438
2426,100.0
2468,100.0
2474,100.0
2480,100.0
2486,100.0
2732,0.0
2759,0.0
2,2, 1, 2, 0,14, 0.00,60.00,Monday
1140,24.365247620518426
1141,25.879764310323045
1142,23.215328292195666
1143,23.998274870995397
1144,23.999454149312507
2426,100.0
2468,100.0
2474,100.0
2480,100.0
2486,100.0
2732,0.0
2759,0.0
2,2, 1, 2, 0,15, 0.00,60.00,Monday
1140,24.395319575984254
1141,25.683397929249414
1142,23.20116153276016
1143,23.999327074320225
1144,23.99943575460047
2426,100.0
2468,100.0
2474,100.0
2480,100.0
2486,100.0
2732,0.0
2759,0.0
2,2, 1, 2, 0,16, 0.00,60.00,Monday
1140,24.06746877155891
1141,25.133438728171606
1142,23.04996038123374
1143,23.981495785041078
1144,23.999541644786047
2426,100.0
2468,100.0
2474,70.0
2480,100.0
2486,100.0
2732,0.0
2759,0.0
2,2, 1, 2, 0,17, 0.00,60.00,Monday
1140,23.44264506527278
1141,24.03921373533787
1142,22.664753667055515
1143,22.548904304423524
1144,23.04896752421657
2426,95.0
2468,100.0
2474,0.0
2480,35.0
2486,50.0
2732,0.0
2759,276265.2719044462
2,2, 1, 2, 0,18, 0.00,60.00,Monday
1140,21.952284501573997
1141,22.910338945937015
1142,22.00937959963081
1143,21.130479306525623
1144,21.78267280805006
2426,55.0
2468,40.0
2474,45.0
2480,100.0
2486,70.0
2732,3163.6886272004587
2759,2762652.719044462
2,2, 1, 2, 0,19, 0.00,60.00,Monday
1140,21.364308017315826
1141,22.219341837056779
1142,21.596374877705686
1143,20.814172856271104
1144,21.35592215219357
2426,100.0
2468,0.0
2474,100.0
2480,100.0
2486,100.0
2732,5164.312909422456
2759,2762652.719044462
2,2, 1, 2, 0,20, 0.00,60.00,Monday
1140,21.340479278983247
1141,21.94916522970181
1142,21.49090142451634
1143,20.994388658817824
1144,21.379087721478205
2426,100.0
2468,70.0
2474,100.0
2480,100.0
2486,100.0
2732,6426.841808532338
2759,2762652.719044462
2,2, 1, 2, 0,21, 0.00,60.00,Monday
1140,21.504716107128627
1141,21.869166246826628
1142,21.51083119535005
1143,21.263607662320799
1144,21.51585835752596
2426,100.0
2468,100.0
2474,100.0
2480,100.0
2486,100.0
2732,6546.173774405934
2759,2762652.719044462
2,2, 1, 2, 0,22, 0.00,60.00,Monday
1140,21.487060923849616
1141,21.854340797484288
1142,21.994599230829058
1143,21.287659470484664
1144,21.566925337149966
2426,100.0
2468,100.0
2474,40.0
2480,100.0
2486,100.0
2732,5673.187048675611
2759,2762652.719044462
2,2, 1, 2, 0,23, 0.00,60.00,Monday
1140,21.55685829334891
1141,21.863635003246146
1142,22.107040134223728
1143,21.392793495461388
1144,21.6231047403548
2426,100.0
2468,100.0
2474,0.0
2480,100.0
2486,100.0
2732,5115.13807286932
2759,2762652.719044462
2,2, 1, 2, 0,24, 0.00,60.00,Monday
1140,21.828202837346575
1141,22.023729511935107
1142,22.099351833153578
1143,21.69152008574003
1144,21.822580911361123
2426,100.0
2468,35.0
2474,0.0
2480,100.0
2486,100.0
2732,3267.1087763723205
2759,2762652.719044462
2,3, 1, 3, 0, 1, 0.00,60.00,Tuesday
1140,22.043309737514876
1141,22.07119696673417
1142,22.090730348534988
1143,21.939868561314549
1144,22.004278784540067
2426,35.0
2468,0.0
2474,0.0
2480,80.0
2486,50.0
2732,1205.5245308714087
2759,2210122.1752355697
2,3, 1, 3, 0, 2, 0.00,60.00,Tuesday
1140,22.03114077488523
1141,22.01854398811577
1142,22.078754697768085
1143,22.007924059563739
1144,22.048661465066716
2426,30.0
2468,30.0
2474,0.0
2480,35.0
2486,10.0
2732,810.7922043953295
2759,966928.4516655617
2,3, 1, 3, 0, 3, 0.00,60.00,Tuesday
1140,21.925614202231594
1141,21.961295289235463
1142,22.053611333984699
1143,21.91207733061514
1144,21.975274425929976
2426,100.0
2468,100.0
2474,0.0
2480,100.0
2486,95.0
2732,4084.172084093227
2759,2762652.719044462
2,3, 1, 3, 0, 4, 0.00,60.00,Tuesday
1140,22.008956876355254
1141,22.029769557540825
1142,22.032939219940798
1143,21.997760211000594
1144,22.026044195179769
2426,35.0
2468,0.0
2474,0.0
2480,55.0
2486,0.0
2732,348.5247272340636
2759,1519458.995474454
2,3, 1, 3, 0, 5, 0.00,60.00,Tuesday
1140,21.993227724716357
1141,21.997864224099936
1142,22.00986226349385
1143,21.99953716691916
1144,21.99647874148669
2426,70.0
2468,55.0
2474,10.0
2480,50.0
2486,65.0
2732,2382.0422276450519
2759,2071989.5392833465
2,3, 1, 3, 0, 6, 0.00,60.00,Tuesday
1140,22.044938895299784
1141,22.04074363242767
1142,22.012339980100518
1143,22.04339955700096
1144,22.037036114347566
2426,0.0
2468,10.0
2474,35.0
2480,15.0
2486,0.0
2732,457.4729317014775
2759,966928.4516655617
2,3, 1, 3, 0, 7, 0.00,60.00,Tuesday
1140,22.01149300448335
1141,22.044577683963426
1142,22.027186015969478
1143,22.027274740932808
1144,22.034006931371228
2426,35.0
2468,0.0
2474,0.0
2480,20.0
2486,0.0
2732,178.65146711848969
2759,966928.4516655617
2,3, 1, 3, 0, 8, 0.00,60.00,Tuesday
1140,22.079011345812675
1141,21.994127186400385
1142,21.77971953154531
1143,22.071253977630545
1144,21.989887588671118
2426,25.0
2468,66.66666666666666
2474,98.33333333333333
2480,20.0
2486,68.33333333333333
2732,2928.9291954799016
2759,2762652.719044462
2,3, 1, 3, 0, 9, 0.00,60.00,Tuesday
1140,23.76785825538809
1141,23.763212566277777
1142,22.01647242516581
1143,23.761535513257099
1144,23.762639328425917
2426,90.0
2468,85.0
2474,45.0
2480,90.0
2486,85.0
2732,211.02177339075807
2759,1243193.7235700079
2,3, 1, 3, 0,10, 0.00,60.00,Tuesday
1140,23.99975691801757
1141,23.99976563192927
1142,22.292230604500884
1143,23.999746720918919
1144,23.999760902244597
2426,100.0
2468,100.0
2474,0.0
2480,100.0
2486,100.0
2732,0.0
2759,0.0
2,3, 1, 3, 0,11, 0.00,60.00,Tuesday
1140,23.999534248687369
1141,23.999591779606339
1142,22.417172829036895
1143,23.9995224723694
1144,23.999587803381297
2426,100.0
2468,100.0
2474,0.0
2480,100.0
2486,100.0
2732,0.0
2759,0.0
2,3, 1, 3, 0,12, 0.00,60.00,Tuesday
1140,23.99931834818017
1141,23.99954623732054
1142,22.470272451801713
1143,23.999489904129459
1144,23.999543271380249
2426,100.0
2468,100.0
2474,0.0
2480,100.0
2486,100.0
2732,0.0
2759,0.0
2,3, 1, 3, 0,13, 0.00,60.00,Tuesday
1140,23.952012527576053
1141,23.999509917474208
1142,22.497288896378785
1143,23.999464758725414
1144,23.999510332031109
2426,100.0
2468,100.0
2474,0.0
2480,100.0
2486,100.0
2732,0.0
2759,0.0
2,3, 1, 3, 0,14, 0.00,60.00,Tuesday
1140,23.823168439669709
1141,23.99947714192956
1142,22.508644367465313
1143,23.96514171860243
1144,23.999476304952908
2426,80.0
2468,100.0
2474,0.0
2480,100.0
2486,100.0
2732,0.0
2759,0.0
2,3, 1, 3, 0,15, 0.00,60.00,Tuesday
1140,23.742398080586008
1141,23.999476642547994
1142,22.48795594228276
1143,23.86302162697027
1144,23.999472121031606
2426,0.0
2468,100.0
2474,0.0
2480,5.0
2486,100.0
2732,0.0
2759,0.0
2,3, 1, 3, 0,16, 0.00,60.00,Tuesday
1140,23.787737972954284
1141,23.999546699554583
1142,22.469108640298285
1143,23.863874174089255
1144,23.999527295804403
2426,0.0
2468,80.0
2474,0.0
2480,0.0
2486,100.0
2732,0.0
2759,0.0
2,3, 1, 3, 0,17, 0.00,60.00,Tuesday
1140,22.708642789207408
1141,23.027356548873855
1142,22.414267439382845
1143,22.746605656679205
1144,23.108105451028615
2426,0.0
2468,30.0
2474,0.0
2480,0.0
2486,55.0
2732,0.0
2759,0.0
2,3, 1, 3, 0,18, 0.00,60.00,Tuesday
1140,21.603488344276355
1141,21.952372843750035
1142,22.056868599072478
1143,21.635129294808615
1144,22.022361646759426
2426,85.0
2468,60.0
2474,35.0
2480,80.0
2486,55.0
2732,4479.720409216231
2759,2348254.8111877928
2,3, 1, 3, 0,19, 0.00,60.00,Tuesday
1140,21.322240890963156
1141,21.607660973446295
1142,21.82226838870062
1143,21.338903671466139
1144,21.65105500965447
2426,100.0
2468,100.0
2474,100.0
2480,100.0
2486,100.0
2732,7529.248975242817
2759,2762652.719044462
2,3, 1, 3, 0,20, 0.00,60.00,Tuesday
1140,21.490801927512125
1141,21.640654014439617
1142,21.790297801097876
1143,21.475020631318459
1144,21.66141168629696
2426,100.0
2468,100.0
2474,100.0
2480,100.0
2486,100.0
2732,6949.78210140694
2759,2762652.719044462
2,3, 1, 3, 0,21, 0.00,60.00,Tuesday
1140,21.714098655485246
1141,21.746648973725635
1142,21.829249745953807
1143,21.676046053890454
1144,21.730262353795284
2426,100.0
2468,100.0
2474,100.0
2480,100.0
2486,100.0
2732,6193.590324656284
2759,2762652.719044462
2,3, 1, 3, 0,22, 0.00,60.00,Tuesday
1140,21.48931946023718
1141,21.600813877188178
1142,22.22287924959827
1143,21.438512056264505
1144,21.54946502321433
2426,100.0
2468,100.0
2474,10.0
2480,100.0
2486,100.0
2732,5838.2501305208729
2759,2762652.719044462
2,3, 1, 3, 0,23, 0.00,60.00,Tuesday
1140,21.513480514266598
1141,21.613668232575
1142,22.27397225539318
1143,21.446279423508618
1144,21.52864427558165
2426,100.0
2468,100.0
2474,0.0
2480,100.0
2486,100.0
2732,5499.476269081153
2759,2762652.719044462
2,3, 1, 3, 0,24, 0.00,60.00,Tuesday
1140,21.65089258494579
1141,21.74647931776864
1142,22.245372488991035
1143,21.573780379276877
1144,21.635710480620639
2426,100.0
2468,100.0
2474,0.0
2480,100.0
2486,100.0
2732,4923.201264895084
2759,2762652.719044462
2,4, 1, 4, 0, 1, 0.00,60.00,Wednesday
1140,21.794127180134134
1141,21.89044170577653
1142,22.2330893591165
1143,21.714556946099039
1144,21.764642712786658
2426,100.0
2468,100.0
2474,0.0
2480,100.0
2486,100.0
2732,4416.263981176973
2759,2762652.719044462
2,4, 1, 4, 0, 2, 0.00,60.00,Wednesday
1140,21.996580048369
1141,22.056591822418015
1142,22.234635204235443
1143,21.919102642050285
1144,21.946474459030207
2426,40.0
2468,0.0
2474,0.0
2480,100.0
2486,100.0
2732,2043.1973975969273
2759,2762652.719044462
2,4, 1, 4, 0, 3, 0.00,60.00,Wednesday
1140,21.888233639112387
1141,21.954391947702225
1142,22.207582738637436
1143,21.898755534967547
1144,21.969425173939919
2426,100.0
2468,65.0
2474,0.0
2480,100.0
2486,85.0
2732,3100.990218869252
2759,2762652.719044462
2,4, 1, 4, 0, 4, 0.00,60.00,Wednesday
1140,21.72670666636653
1141,21.835202849239925
1142,22.138083564672717
1143,21.75878234688105
1144,21.89407154470497
2426,100.0
2468,100.0
2474,0.0
2480,100.0
2486,100.0
2732,4129.3752920916
2759,2762652.719044462
2,4, 1, 4, 0, 5, 0.00,60.00,Wednesday
1140,21.67612620934143
1141,21.83416985728521
1142,22.072386444203059
1143,21.70481871236418
1144,21.885789210334634
2426,100.0
2468,100.0
2474,0.0
2480,100.0
2486,100.0
2732,4095.315279229125
2759,2762652.719044462
2,4, 1, 4, 0, 6, 0.00,60.00,Wednesday
1140,21.610466481371068
1141,21.828922940505107
1142,22.0104572717879
1143,21.62419094176282
1144,21.858087001811155
2426,100.0
2468,100.0
2474,30.0
2480,100.0
2486,100.0
2732,4182.546723336359
2759,2762652.719044462
2,4, 1, 4, 0, 7, 0.00,60.00,Wednesday
1140,21.59588296826729
1141,21.848306424120943
1142,22.00345674022187
1143,21.58766262207921
1144,21.847890861079244
2426,100.0
2468,100.0
2474,55.0
2480,100.0
2486,100.0
2732,4248.963834304143
2759,2762652.719044462
2,4, 1, 4, 0, 8, 0.00,60.00,Wednesday
1140,22.048708761967565
1141,22.01743866287716
1142,21.72135728208003
1143,22.011019418350278
1144,22.001568933705746
2426,25.0
2468,30.0
2474,96.66666666666666
2480,30.0
2486,35.0
2732,1678.3081371172107
2759,2762652.719044462
2,4, 1, 4, 0, 9, 0.00,60.00,Wednesday
1140,23.745021203415115
1141,23.75263432020128
1142,22.01151425209529
1143,23.7086714899914
1144,23.728740627370969
2426,85.0
2468,86.66666666666666
2474,50.0
2480,85.0
2486,86.66666666666666
2732,328.6565078590802
2759,1381326.359522231
2,4, 1, 4, 0,10, 0.00,60.00,Wednesday
1140,23.999736209115907
1141,24.396668828712899
1142,22.438405297965326
1143,23.99971567168136
1144,23.99970408507961
2426,100.0
2468,100.0
2474,0.0
2480,100.0
2486,100.0
2732,0.0
2759,0.0
2,4, 1, 4, 0,11, 0.00,60.00,Wednesday
1140,23.999593342769239
1141,24.809095809567375
1142,22.718590899570576
1143,23.99948181705455
1144,23.999525936039754
2426,100.0
2468,100.0
2474,0.0
2480,100.0
2486,100.0
2732,0.0
2759,0.0
2,4, 1, 4, 0,12, 0.00,60.00,Wednesday
1140,23.99950377405029
1141,25.007913632850824
1142,22.893790642858759
1143,23.999430146207304
1144,23.99948175838976
2426,100.0
2468,100.0
2474,0.0
2480,100.0
2486,100.0
2732,0.0
2759,0.0
2,4, 1, 4, 0,13, 0.00,60.00,Wednesday
1140,23.999469021362957
1141,25.05442050278316
1142,23.006907772798237
1143,23.99470252941078
1144,23.99946410317508
2426,100.0
2468,100.0
2474,60.0
2480,100.0
2486,100.0
2732,0.0
2759,0.0
2,4, 1, 4, 0,14, 0.00,60.00,Wednesday
1140,23.999397112600314
1141,24.830302061960219
1142,22.99332499486827
1143,23.939750724151407
1144,23.99944990788709
2426,100.0
2468,100.0
2474,50.0
2480,100.0
2486,100.0
2732,0.0
2759,0.0
2,4, 1, 4, 0,15, 0.00,60.00,Wednesday
1140,23.999447559794708
1141,24.68883156669185
1142,22.943057592963645
1143,23.905328186809486
1144,23.999439119095265
2426,100.0
2468,100.0
2474,0.0
2480,100.0
2486,100.0
2732,0.0
2759,0.0
2,4, 1, 4, 0,16, 0.00,60.00,Wednesday
1140,23.999418917473816
1141,24.339192292581708
1142,22.875912005931487
1143,23.72316328047769
1144,23.999500538039287
2426,100.0
2468,100.0
2474,0.0
2480,100.0
2486,100.0
2732,0.0
2759,0.0
2,4, 1, 4, 0,17, 0.00,60.00,Wednesday
1140,22.729549267167007
1141,23.466461207829437
1142,22.57450933569067
1143,22.115323329064588
1144,22.880707345394666
2426,30.0
2468,100.0
2474,0.0
2480,65.0
2486,35.0
2732,317.92363775441586
2759,1381326.359522231
2,4, 1, 4, 0,18, 0.00,60.00,Wednesday
1140,21.33247855916163
1141,22.18698967739139
1142,22.019679772030146
1143,20.887541855933188
1144,21.635513973071875
2426,90.0
2468,45.0
2474,45.0
2480,100.0
2486,80.0
2732,5030.053253998057
2759,2762652.719044462
2,4, 1, 4, 0,19, 0.00,60.00,Wednesday
1140,20.89125299974311
1141,21.590833883588127
1142,21.67508518015597
1143,20.619409674751247
1144,21.185856516855155
2426,100.0
2468,100.0
2474,100.0
2480,100.0
2486,100.0
2732,8171.9212232873519
2759,2762652.719044462
2,4, 1, 4, 0,20, 0.00,60.00,Wednesday
1140,20.993603074945307
1141,21.4941874463364
1142,21.58064244187893
1143,20.79978306725443
1144,21.198331022736594
2426,100.0
2468,100.0
2474,100.0
2480,100.0
2486,100.0
2732,7746.61326817727
2759,2762652.719044462
2,4, 1, 4, 0,21, 0.00,60.00,Wednesday
1140,21.17320153017762
1141,21.539676752236934
1142,21.585451193937695
1143,21.01485064312924
1144,21.292669917431306
2426,100.0
2468,100.0
2474,100.0
2480,100.0
2486,100.0
2732,7052.053794310166
2759,2762652.719044462
2,4, 1, 4, 0,22, 0.00,60.00,Wednesday
1140,20.823660338286815
1141,21.355898145078574
1142,22.066159237132078
1143,20.67715229507062
1144,21.11364320658849
2426,100.0
2468,100.0
2474,25.0
2480,100.0
2486,100.0
2732,6781.8145221798599
2759,2762652.719044462
2,4, 1, 4, 0,23, 0.00,60.00,Wednesday
1140,20.944006498018049
1141,21.406555067229794
1142,22.143275760675797
1143,20.80240707499648
1144,21.17410896741537
2426,100.0
2468,100.0
2474,0.0
2480,100.0
2486,100.0
2732,6189.209183834368
2759,2762652.719044462
2,4, 1, 4, 0,24, 0.00,60.00,Wednesday
1140,21.142556569709865
1141,21.528379519478084
1142,22.097872412837086
1143,21.00694534078388
1144,21.307432726154805
2426,100.0
2468,100.0
2474,0.0
2480,100.0
2486,100.0
2732,5519.851151941272
2759,2762652.719044462
2,5, 1, 5, 0, 1, 0.00,60.00,Thursday
1140,21.18137580405287
1141,21.560083937789586
1142,22.043386447299754
1143,21.053453324300546
1144,21.34968331604056
2426,100.0
2468,100.0
2474,0.0
2480,100.0
2486,100.0
2732,5244.236399101192
2759,2762652.719044462
2,5, 1, 5, 0, 2, 0.00,60.00,Thursday
1140,21.304904980323827
1141,21.647545650381699
1142,22.003520228618407
1143,21.183255238132938
1144,21.445788030620343
2426,100.0
2468,100.0
2474,40.0
2480,100.0
2486,100.0
2732,5043.7169564462169
2759,2762652.719044462
2,5, 1, 5, 0, 3, 0.00,60.00,Thursday
1140,21.506311761943324
1141,21.803561300381934
1142,22.007782721838898
1143,21.391993815579974
1144,21.61119762290137
2426,100.0
2468,100.0
2474,25.0
2480,100.0
2486,100.0
2732,4380.464121923327
2759,2762652.719044462
2,5, 1, 5, 0, 4, 0.00,60.00,Thursday
1140,21.560387282029674
1141,21.857702912673028
1142,22.010217568576875
1143,21.454701124607174
1144,21.6759182048962
2426,100.0
2468,100.0
2474,45.0
2480,100.0
2486,100.0
2732,4271.937070233316
2759,2762652.719044462
2,5, 1, 5, 0, 5, 0.00,60.00,Thursday
1140,21.683385191500759
1141,21.96580287171408
1142,22.02398733568277
1143,21.586230645115984
1144,21.795006057103515
2426,100.0
2468,100.0
2474,0.0
2480,100.0
2486,100.0
2732,3664.2689012873186
2759,2762652.719044462
2,5, 1, 5, 0, 6, 0.00,60.00,Thursday
1140,21.614437431697977
1141,21.93900323056517
1142,21.99519932437761
1143,21.52449841781715
1144,21.778267639589445
2426,100.0
2468,100.0
2474,75.0
2480,100.0
2486,100.0
2732,4119.2304361457959
2759,2762652.719044462
2,5, 1, 5, 0, 7, 0.00,60.00,Thursday
1140,21.597609793196317
1141,21.94711606213505
1142,22.004623037005456
1143,21.512838961127824
1144,21.794901959182938
2426,100.0
2468,100.0
2474,30.0
2480,100.0
2486,100.0
2732,3776.818213776406
2759,2762652.719044462
2,5, 1, 5, 0, 8, 0.00,60.00,Thursday
1140,21.7698741079712
1141,21.87509984073176
1142,21.603188371493315
1143,21.689929580941187
1144,21.751190193272519
2426,100.0
2468,100.0
2474,100.0
2480,100.0
2486,100.0
2732,4240.774129033327
2759,2762652.719044462
2,5, 1, 5, 0, 9, 0.00,60.00,Thursday
1140,23.6616436261417
1141,23.708536070531176
1142,21.858291881698798
1143,23.536405770749444
1144,23.639618077998585
2426,88.33333333333333
2468,88.33333333333333
2474,80.0
2480,88.33333333333333
2486,88.33333333333333
2732,549.6932102856954
2759,2210122.1752355697
2,5, 1, 5, 0,10, 0.00,60.00,Thursday
1140,23.999724203240615
1141,24.049349111217
1142,22.28731293604557
1143,23.970106067803486
1144,23.999712400015736
2426,100.0
2468,100.0
2474,0.0
2480,100.0
2486,100.0
2732,0.0
2759,0.0
2,5, 1, 5, 0,11, 0.00,60.00,Thursday
1140,23.999560486944753
1141,24.39661560202334
1142,22.55385754539517
1143,23.930969114829034
1144,23.99951334683833
2426,100.0
2468,100.0
2474,0.0
2480,100.0
2486,100.0
2732,0.0
2759,0.0
2,5, 1, 5, 0,12, 0.00,60.00,Thursday
1140,23.99950829592313
1141,24.799394180252585
1142,22.76268239749289
1143,23.848115885578176
1144,23.9994436678045
2426,100.0
2468,100.0
2474,0.0
2480,100.0
2486,100.0
2732,0.0
2759,0.0
2,5, 1, 5, 0,13, 0.00,60.00,Thursday
1140,23.999477738489646
1141,25.092503655152805
1142,22.94245085069607
1143,23.765800480543996
1144,23.999410608999
2426,100.0
2468,100.0
2474,0.0
2480,100.0
2486,100.0
2732,0.0
2759,0.0
2,5, 1, 5, 0,14, 0.00,60.00,Thursday
1140,23.99945395730034
1141,25.141508754396378
1142,23.027651349167063
1143,23.620061903432974
1144,23.999400299509309
2426,100.0
2468,100.0
2474,100.0
2480,100.0
2486,100.0
2732,0.0
2759,0.0
2,5, 1, 5, 0,15, 0.00,60.00,Thursday
1140,23.99943860712102
1141,24.95406842727801
1142,23.017428216201489
1143,23.689115557244955
1144,23.999402365301238
2426,100.0
2468,100.0
2474,80.0
2480,100.0
2486,100.0
2732,0.0
2759,0.0
2,5, 1, 5, 0,16, 0.00,60.00,Thursday
1140,23.999361575241033
1141,24.493589766145566
1142,22.88843401045798
1143,23.620571265085564
1144,23.999463033385227
2426,100.0
2468,100.0
2474,0.0
2480,100.0
2486,100.0
2732,0.0
2759,0.0
2,5, 1, 5, 0,17, 0.00,60.00,Thursday
1140,22.938545102703736
1141,23.63341355906345
1142,22.563375490696733
1143,22.031444632765408
1144,22.777561509743259
2426,45.0
2468,100.0
2474,0.0
2480,70.0
2486,35.0
2732,300.14207781077956
2759,1519458.995474454
2,5, 1, 5, 0,18, 0.00,60.00,Thursday
1140,21.34642581333734
1141,22.29277986226862
1142,21.921816752213549
1143,20.638656525266688
1144,21.394567350078533
2426,85.0
2468,35.0
2474,60.0
2480,100.0
2486,90.0
2732,5255.941772274309
2759,2762652.719044462
2,5, 1, 5, 0,19, 0.00,60.00,Thursday
1140,20.823731536690837
1141,21.615177865864376
1142,21.533001508821678
1143,20.401567891827317
1144,20.964761407485427
2426,100.0
2468,100.0
2474,100.0
2480,100.0
2486,100.0
2732,8344.67276078059
2759,2762652.719044462