Program Version,EnergyPlus, Version 9.4.0-998c4b761e, YMD=2021.07.09 13:37
1,5,Environment Title[],Latitude[deg],Longitude[deg],Time Zone[],Elevation[m]
2,8,Day of Simulation[],Month[],Day of Month[],DST Indicator[1=yes 0=no],Hour[],StartMinute[],EndMinute[],DayType
3,5,Cumulative Day of Simulation[],Month[],Day of Month[],DST Indicator[1=yes 0=no],DayType  ! When Daily Meters Requested
4,2,Cumulative Days of Simulation[],Month[]  ! When Monthly Meters Requested
5,1,Cumulative Days of Simulation[] ! When Run Period Meters Requested
6,1,Calendar Year of Simulation[] ! When Annual Meters Requested
59,1,Electricity:Facility [J] !Hourly
1716,1,ElectricityNet:Facility [J] !Hourly
95,1,InteriorLights:Electricity [J] !Hourly
512,1,InteriorEquipment:Electricity [J] !Hourly
End of Data Dictionary
1,ATLANTA-HARTSFIELD.JACKSON.INTL.AP_GA_USA ANN HTG 99.6% CONDNS DB,  33.63, -84.43,  -5.00, 308.00
2,1, 1,21, 0, 1, 0.00,60.00,WinterDesignDay
59,192929760.40553976
95,0.0
512,0.0
1716,192929760.40553976
2,1, 1,21, 0, 2, 0.00,60.00,WinterDesignDay
59,192917760.40553976
95,0.0
512,0.0
1716,192917760.40553976
2,1, 1,21, 0, 3, 0.00,60.00,WinterDesignDay
59,192839760.40553976
95,0.0
512,0.0
1716,192839760.40553976
2,1, 1,21, 0, 4, 0.00,60.00,WinterDesignDay
59,192815760.40553976
95,0.0
512,0.0
1716,192815760.40553976
2,1, 1,21, 0, 5, 0.00,60.00,WinterDesignDay
59,192911760.40553976
95,0.0
512,0.0
1716,192911760.40553976
2,1, 1,21, 0, 6, 0.00,60.00,WinterDesignDay
59,192917760.40553976
95,0.0
512,0.0
1716,192917760.40553976
2,1, 1,21, 0, 7, 0.00,60.00,WinterDesignDay
59,202900020.40553973
95,0.0
512,0.0
1716,202900020.40553973
2,1, 1,21, 0, 8, 0.00,60.00,WinterDesignDay
59,198439170.40553973
95,0.0
512,0.0
1716,198439170.40553973
2,1, 1,21, 0, 9, 0.00,60.00,WinterDesignDay
59,184228620.40553979
95,0.0
512,0.0
1716,184228620.40553979
2,1, 1,21, 0,10, 0.00,60.00,WinterDesignDay
59,184312620.40553979
95,0.0
512,0.0
1716,184312620.40553979
2,1, 1,21, 0,11, 0.00,60.00,WinterDesignDay
59,184228620.40553979
95,0.0
512,0.0
1716,184228620.40553979
2,1, 1,21, 0,12, 0.00,60.00,WinterDesignDay
59,184336620.40553979
95,0.0
512,0.0
1716,184336620.40553979
2,1, 1,21, 0,13, 0.00,60.00,WinterDesignDay
59,184300620.40553979
95,0.0
512,0.0
1716,184300620.40553979
2,1, 1,21, 0,14, 0.00,60.00,WinterDesignDay
59,184246620.40553979
95,0.0
512,0.0
1716,184246620.40553979
2,1, 1,21, 0,15, 0.00,60.00,WinterDesignDay
59,184282620.40553979
95,0.0
512,0.0
1716,184282620.40553979
2,1, 1,21, 0,16, 0.00,60.00,WinterDesignDay
59,184300620.40553979
95,0.0
512,0.0
1716,184300620.40553979
2,1, 1,21, 0,17, 0.00,60.00,WinterDesignDay
59,184312620.40553979
95,0.0
512,0.0
1716,184312620.40553979
2,1, 1,21, 0,18, 0.00,60.00,WinterDesignDay
59,186730140.40553979
95,0.0
512,0.0
1716,186730140.40553979
2,1, 1,21, 0,19, 0.00,60.00,WinterDesignDay
59,203494020.40553973
95,0.0
512,0.0
1716,203494020.40553973
2,1, 1,21, 0,20, 0.00,60.00,WinterDesignDay
59,195367140.40553976
95,0.0
512,0.0
1716,195367140.40553976
2,1, 1,21, 0,21, 0.00,60.00,WinterDesignDay
59,195361140.40553976
95,0.0
512,0.0
1716,195361140.40553976
2,1, 1,21, 0,22, 0.00,60.00,WinterDesignDay
59,195469140.40553976
95,0.0
512,0.0
1716,195469140.40553976
2,1, 1,21, 0,23, 0.00,60.00,WinterDesignDay
59,195451140.40553976
95,0.0
512,0.0
1716,195451140.40553976
2,1, 1,21, 0,24, 0.00,60.00,WinterDesignDay
59,195421140.40553976
95,0.0
512,0.0
1716,195421140.40553976
1,ATLANTA-HARTSFIELD.JACKSON.INTL.AP_GA_USA ANN CLG .4% CONDNS DB=>MWB,  33.63, -84.43,  -5.00, 308.00
2,1, 7,21, 0, 1, 0.00,60.00,SummerDesignDay
59,617099768.7011844
95,152517470.7542746
512,224813060.55296675
1716,617099768.701184
2,1, 7,21, 0, 2, 0.00,60.00,SummerDesignDay
59,616867802.5365012
95,152517470.7542746
512,224813060.55296675
1716,616867802.5365008
2,1, 7,21, 0, 3, 0.00,60.00,SummerDesignDay
59,616799768.7011839
95,152517470.7542746
512,224813060.55296675
1716,616799768.7011836
2,1, 7,21, 0, 4, 0.00,60.00,SummerDesignDay
59,615380971.5533757
95,152517470.7542746
512,224813060.55296675
1716,615380971.5533754
2,1, 7,21, 0, 5, 0.00,60.00,SummerDesignDay
59,612720055.2028637
95,152517470.7542746
512,224813060.55296675
1716,612720055.2028633
2,1, 7,21, 0, 6, 0.00,60.00,SummerDesignDay
59,614710008.5693741
95,152399851.51267544
512,224813060.55296675
1716,614710008.5693737
2,1, 7,21, 0, 7, 0.00,60.00,SummerDesignDay
59,569296628.0722741
95,129723979.24717574
512,224813060.55296675
1716,569296628.072274
2,1, 7,21, 0, 8, 0.00,60.00,SummerDesignDay
59,555072256.490375
95,120394417.54972403
512,224813060.55296675
1716,555072256.490375
2,1, 7,21, 0, 9, 0.00,60.00,SummerDesignDay
59,552331469.7839391
95,119991185.40467149
512,224813060.55296675
1716,552331469.7839391
2,1, 7,21, 0,10, 0.00,60.00,SummerDesignDay
59,550913316.7459192
95,119991185.40467149
512,224813060.55296675
1716,550913316.7459192
2,1, 7,21, 0,11, 0.00,60.00,SummerDesignDay
59,551864752.1045991
95,119991185.40467149
512,224813060.55296675
1716,551864752.1045991
2,1, 7,21, 0,12, 0.00,60.00,SummerDesignDay
59,550489615.9842377
95,119991185.40467149
512,224813060.55296675
1716,550489615.9842377
2,1, 7,21, 0,13, 0.00,60.00,SummerDesignDay
59,554664041.2629806
95,119991185.40467149
512,224813060.55296675
1716,554664041.2629806
2,1, 7,21, 0,14, 0.00,60.00,SummerDesignDay
59,550865412.3529525
95,119991185.40467149
512,224813060.55296675
1716,550865412.3529525
2,1, 7,21, 0,15, 0.00,60.00,SummerDesignDay
59,553147305.8868884
95,119991185.40467149
512,224813060.55296675
1716,553147305.8868884
2,1, 7,21, 0,16, 0.00,60.00,SummerDesignDay
59,553159305.8868884
95,119991185.40467149
512,224813060.55296675
1716,553159305.8868884
2,1, 7,21, 0,17, 0.00,60.00,SummerDesignDay
59,558167471.6615472
95,119991185.40467149
512,224813060.55296675
1716,558167471.6615472
2,1, 7,21, 0,18, 0.00,60.00,SummerDesignDay
59,565897114.6923559
95,120025441.17307365
512,224813060.55296675
1716,565897114.6923559
2,1, 7,21, 0,19, 0.00,60.00,SummerDesignDay
59,577381053.9843825
95,122515297.56083551
512,224813060.55296675
1716,577381053.9843825
2,1, 7,21, 0,20, 0.00,60.00,SummerDesignDay
59,605909577.9220775
95,146697555.81048496
512,224813060.55296675
1716,605909577.9220775
2,1, 7,21, 0,21, 0.00,60.00,SummerDesignDay
59,618181402.3063507
95,152517470.7542746
512,224813060.55296675
1716,618181402.3063502
2,1, 7,21, 0,22, 0.00,60.00,SummerDesignDay
59,618244724.3612449
95,152517470.7542746
512,224813060.55296675
1716,618244724.3612446
2,1, 7,21, 0,23, 0.00,60.00,SummerDesignDay
59,620029792.8109727
95,152517470.7542746
512,224813060.55296675
1716,620029792.8109723
2,1, 7,21, 0,24, 0.00,60.00,SummerDesignDay
59,619812131.7835258
95,152517470.7542746
512,224813060.55296675
1716,619812131.7835255
1,RUNPERIOD 1,  33.63, -84.43,  -5.00, 308.00
2,1, 7, 1, 0, 1, 0.00,60.00,Monday
59,60650215.539524439
95,7625873.53771374
512,44533202.00181081
1716,60650215.539524439
2,1, 7, 1, 0, 2, 0.00,60.00,Monday
59,60650215.539524439
95,7625873.53771374
512,44533202.00181081
1716,60650215.539524439
2,1, 7, 1, 0, 3, 0.00,60.00,Monday
59,60650215.539524439
95,7625873.53771374
512,44533202.00181081
1716,60650215.539524439
2,1, 7, 1, 0, 4, 0.00,60.00,Monday
59,63888151.30685109
95,7625873.53771374
512,44533202.00181081
1716,63888151.30685109
2,1, 7, 1, 0, 5, 0.00,60.00,Monday
59,71982990.72516774
95,7625873.53771374
512,44533202.00181081
1716,71982990.72516775
2,1, 7, 1, 0, 6, 0.00,60.00,Monday
59,95279776.49350363
95,14835019.70208967
512,44533202.00181081
1716,95279776.49350363
2,1, 7, 1, 0, 7, 0.00,60.00,Monday
59,117165293.61834835
95,10806640.641844433
512,55180531.87831209
1716,117165293.61834835
2,1, 7, 1, 0, 8, 0.00,60.00,Monday
59,356889330.68350866
95,31270023.132256438
512,95796493.41677362
1716,356889330.6835088
2,1, 7, 1, 0, 9, 0.00,60.00,Monday
59,528875643.90913978
95,93124323.85391505
512,204227663.7591696
1716,528875643.90913966
2,1, 7, 1, 0,10, 0.00,60.00,Monday
59,486084144.02110168
95,93124323.85391505
512,174055806.61631225
1716,486084144.02110168
2,1, 7, 1, 0,11, 0.00,60.00,Monday
59,464826617.0939881
95,93124323.85391505
512,167093070.3525762
1716,464826617.0939881
2,1, 7, 1, 0,12, 0.00,60.00,Monday
59,480625226.73178586
95,93124323.85391505
512,174055806.61631225
1716,480625226.73178586
2,1, 7, 1, 0,13, 0.00,60.00,Monday
59,501724613.4990386
95,93124323.85391505
512,177667514.30607493
1716,501724613.4990386
2,1, 7, 1, 0,14, 0.00,60.00,Monday
59,500770557.1190274
95,93124323.85391505
512,179858086.83609239
1716,500770557.1190273
2,1, 7, 1, 0,15, 0.00,60.00,Monday
59,488133953.17761537
95,93124323.85391505
512,167093070.3525762
1716,488133953.17761537
2,1, 7, 1, 0,16, 0.00,60.00,Monday
59,470486089.3725895
95,93133991.36789204
512,167093070.3525762
1716,470486089.37258926
2,1, 7, 1, 0,17, 0.00,60.00,Monday
59,484584089.4925565
95,94304569.99747429
512,177537174.74818046
1716,484584089.4925565
2,1, 7, 1, 0,18, 0.00,60.00,Monday
59,424110914.3008878
95,52897696.51907077
512,140923939.57316477
1716,424110914.3008878
2,1, 7, 1, 0,19, 0.00,60.00,Monday
59,333746172.3959987
95,33000511.074774714
512,69106004.40578471
1716,333746172.3959987
2,1, 7, 1, 0,20, 0.00,60.00,Monday
59,332512936.7618492
95,38899677.792273219
512,59822356.054136309
1716,332512936.7618492
2,1, 7, 1, 0,21, 0.00,60.00,Monday
59,328646476.8653082
95,26303943.895732464
512,59822356.054136309
1716,328646476.8653083
2,1, 7, 1, 0,22, 0.00,60.00,Monday
59,138562918.16286517
95,26303943.895732464
512,55180531.87831209
1716,138562918.16286517
2,1, 7, 1, 0,23, 0.00,60.00,Monday
59,130182060.33607809
95,13151971.947866232
512,55180531.87831209
1716,130182060.33607809
2,1, 7, 1, 0,24, 0.00,60.00,Monday
59,116955170.71115485
95,6575985.973933116
512,55180531.87831209
1716,116955170.71115485
2,2, 7, 2, 0, 1, 0.00,60.00,Tuesday
59,60650215.539524439
95,7625873.53771374
512,44533202.00181081
1716,60650215.539524439
2,2, 7, 2, 0, 2, 0.00,60.00,Tuesday
59,60650215.539524439
95,7625873.53771374
512,44533202.00181081
1716,60650215.539524439
2,2, 7, 2, 0, 3, 0.00,60.00,Tuesday
59,60650215.539524439
95,7625873.53771374
512,44533202.00181081
1716,60650215.539524439
2,2, 7, 2, 0, 4, 0.00,60.00,Tuesday
59,60650215.539524439
95,7625873.53771374
512,44533202.00181081
1716,60650215.539524439
2,2, 7, 2, 0, 5, 0.00,60.00,Tuesday
59,68745054.95784107
95,7625873.53771374
512,44533202.00181081
1716,68745054.95784107
2,2, 7, 2, 0, 6, 0.00,60.00,Tuesday
59,81773276.85570327
95,15251747.07542748
512,44533202.00181081
1716,81773276.85570327
2,2, 7, 2, 0, 7, 0.00,60.00,Tuesday
59,114051838.02007944
95,12100348.64949286
512,55180531.87831209
1716,114051838.02007944
2,2, 7, 2, 0, 8, 0.00,60.00,Tuesday
59,356745586.8773923
95,31140584.46337594
512,95796493.41677362
1716,356745586.8773923
2,2, 7, 2, 0, 9, 0.00,60.00,Tuesday
59,528999982.8816926
95,93124323.85391505
512,204227663.7591696
1716,528999982.88169249
2,2, 7, 2, 0,10, 0.00,60.00,Tuesday
59,498663617.5896983
95,93124323.85391505
512,174055806.61631225
1716,498663617.5896983
2,2, 7, 2, 0,11, 0.00,60.00,Tuesday
59,491516169.54554
95,93124323.85391505
512,167093070.3525762
1716,491516169.5455392
2,2, 7, 2, 0,12, 0.00,60.00,Tuesday
59,492519412.080805
95,93124323.85391505
512,174055806.61631225
1716,492519412.080805
2,2, 7, 2, 0,13, 0.00,60.00,Tuesday
59,501824952.4715913
95,93124323.85391505
512,177667514.30607493
1716,501824952.4715913
2,2, 7, 2, 0,14, 0.00,60.00,Tuesday
59,488261151.2210641
95,93124323.85391505
512,179858086.83609239
1716,488261151.2210641
2,2, 7, 2, 0,15, 0.00,60.00,Tuesday
59,491593355.639782
95,93124323.85391505
512,167093070.3525762
1716,491593355.639782
2,2, 7, 2, 0,16, 0.00,60.00,Tuesday
59,491799389.4750988
95,93124323.85391505
512,167093070.3525762
1716,491799389.47509887
2,2, 7, 2, 0,17, 0.00,60.00,Tuesday
59,502663493.8707027
95,93124323.85391505
512,177537174.74818046
1716,502663493.8707027
2,2, 7, 2, 0,18, 0.00,60.00,Tuesday
59,424600589.2697789
95,51749162.5771431
512,140923939.57316477
1716,424600589.2697789
2,2, 7, 2, 0,19, 0.00,60.00,Tuesday
59,332458815.18407759
95,31563153.862853268
512,69106004.40578471
1716,332458815.18407759
2,2, 7, 2, 0,20, 0.00,60.00,Tuesday
59,331310909.124132
95,37421650.15455603
512,59822356.054136309
1716,331310909.124132
2,2, 7, 2, 0,21, 0.00,60.00,Tuesday
59,328436476.8653082
95,26303943.895732464
512,59822356.054136309
1716,328436476.8653083
2,2, 7, 2, 0,22, 0.00,60.00,Tuesday
59,140649886.04652847
95,26303943.895732464
512,55180531.87831209
1716,140649886.04652847
2,2, 7, 2, 0,23, 0.00,60.00,Tuesday
59,130988094.17139493
95,13151971.947866232
512,55180531.87831209
1716,130988094.17139493
2,2, 7, 2, 0,24, 0.00,60.00,Tuesday
59,122052074.36214483
95,6575985.973933116
512,55180531.87831209
1716,122052074.36214483
End of Data
 Number of Records Written=         384
