Program Version,EnergyPlus, Version 9.4.0-998c4b761e, YMD=2021.07.09 13:37
1,5,Environment Title[],Latitude[deg],Longitude[deg],Time Zone[],Elevation[m]
2,8,Day of Simulation[],Month[],Day of Month[],DST Indicator[1=yes 0=no],Hour[],StartMinute[],EndMinute[],DayType
3,5,Cumulative Day of Simulation[],Month[],Day of Month[],DST Indicator[1=yes 0=no],DayType  ! When Daily Report Variables Requested
4,2,Cumulative Days of Simulation[],Month[]  ! When Monthly Report Variables Requested
5,1,Cumulative Days of Simulation[] ! When Run Period Report Variables Requested
6,1,Calendar Year of Simulation[] ! When Annual Report Variables Requested
7,1,Environment,Site Outdoor Air Drybulb Temperature [C] !Hourly
770,1,PERIMETER_TOP_ZN_4,Zone Mean Air Temperature [C] !Hourly
2050,1,PERI1_TOP_LOTEMP,Zone Radiant HVAC Cooling Rate [W] !Hourly
2053,1,PERI1_TOP_LOTEMP,Zone Radiant HVAC Mass Flow Rate [kg/s] !Hourly
2054,1,PERI1_TOP_LOTEMP,Zone Radiant HVAC Injection Mass Flow Rate [kg/s] !Hourly
2055,1,PERI1_TOP_LOTEMP,Zone Radiant HVAC Recirculation Mass Flow Rate [kg/s] !Hourly
2056,1,PERI1_TOP_LOTEMP,Zone Radiant HVAC Inlet Temperature [C] !Hourly
2057,1,PERI1_TOP_LOTEMP,Zone Radiant HVAC Outlet Temperature [C] !Hourly
2063,1,PERI2_TOP_LOTEMP,Zone Radiant HVAC Outlet Temperature [C] !Hourly
2285,1,PERI1_TOP_LOTEMP_CHW_INLET,System Node Temperature [C] !Hourly
2286,1,PERI1_TOP_LOTEMP_CHW_OUTLET,System Node Temperature [C] !Hourly
End of Data Dictionary
1,ATLANTA-HARTSFIELD.JACKSON.INTL.AP_GA_USA ANN HTG 99.6% CONDNS DB,  33.63, -84.43,  -5.00, 308.00
2,1, 1,21, 0, 1, 0.00,60.00,WinterDesignDay
7,-6.300000000000007
770,19.139014366043626
2050,0.0
2053,0.0442086884721397
2054,0.00995807180452058
2055,0.03425061666761912
2056,30.07565497893476
2057,29.070334565008044
2063,23.807815547865844
2285,12.20000000000001
2286,12.20000000000001
2,1, 1,21, 0, 2, 0.00,60.00,WinterDesignDay
7,-6.300000000000007
770,19.137411295478257
2050,0.0
2053,0.0442086884721397
2054,0.009961012643548019
2055,0.03424767582859169
2056,30.08221587374128
2057,29.076599205695368
2063,23.807116012283858
2285,12.20000000000001
2286,12.20000000000001
2,1, 1,21, 0, 3, 0.00,60.00,WinterDesignDay
7,-6.300000000000007
770,19.135973702147408
2050,0.0
2053,0.0442086884721397
2054,0.00996274751929696
2055,0.034245940952842748
2056,30.085070604766537
2057,29.079279168879848
2063,23.552540727258344
2285,12.20000000000001
2286,12.20000000000001
2,1, 1,21, 0, 4, 0.00,60.00,WinterDesignDay
7,-6.300000000000007
770,19.13461013755992
2050,0.0
2053,0.0442086884721397
2054,0.009963147651521893
2055,0.03424554082061781
2056,30.08612730658093
2057,29.080295562190867
2063,23.552268902811464
2285,12.20000000000001
2286,12.20000000000001
2,1, 1,21, 0, 5, 0.00,60.00,WinterDesignDay
7,-6.300000000000007
770,19.13329971576205
2050,0.0
2053,0.06631303270820956
2054,0.014939832220434425
2055,0.05137320048777513
2056,30.08646749260263
2057,28.57821240976984
2063,23.552161558042874
2285,12.20000000000001
2286,12.20000000000001
2,1, 1,21, 0, 6, 0.00,60.00,WinterDesignDay
7,-6.300000000000007
770,19.133923495030307
2050,0.0
2053,0.06631303270820956
2054,0.014956328255835532
2055,0.051356704452374019
2056,30.090268531989826
2057,28.580351672231374
2063,23.55207728258462
2285,12.20000000000001
2286,12.20000000000001
2,1, 1,21, 0, 7, 0.00,60.00,WinterDesignDay
7,-6.300000000000007
770,19.698362077822084
2050,0.0
2053,0.0
2054,0.0
2055,0.0
2056,30.091779269933409
2057,30.091779269933409
2063,24.115915212705564
2285,12.20000000000001
2286,12.20000000000001
2,1, 1,21, 0, 8, 0.00,60.00,WinterDesignDay
7,-6.300000000000007
770,19.393926093457077
2050,0.0
2053,0.0
2054,0.0
2055,0.0
2056,30.091779269933409
2057,30.091779269933409
2063,24.08046720368755
2285,12.20000000000001
2286,12.20000000000001
2,1, 1,21, 0, 9, 0.00,60.00,WinterDesignDay
7,-6.300000000000007
770,19.128935878338884
2050,0.0
2053,0.06631303270820956
2054,0.014957801519260664
2055,0.0513552311889489
2056,30.08058845149689
2057,28.570523178189015
2063,24.109462122936998
2285,12.20000000000001
2286,12.20000000000001
2,1, 1,21, 0,10, 0.00,60.00,WinterDesignDay
7,-6.300000000000007
770,19.270749248434325
2050,0.0
2053,0.0
2054,0.0
2055,0.0
2056,30.04915045316488
2057,30.04915045316488
2063,24.06990085909292
2285,12.20000000000001
2286,12.20000000000001
2,1, 1,21, 0,11, 0.00,60.00,WinterDesignDay
7,-6.300000000000007
770,19.156840988126239
2050,0.0
2053,0.055260860590174629
2054,0.01242993695554565
2055,0.04283092363462897
2056,30.045550483341267
2057,28.790678272972995
2063,24.077007852800869
2285,12.20000000000001
2286,12.20000000000001
2,1, 1,21, 0,12, 0.00,60.00,WinterDesignDay
7,-6.300000000000007
770,19.14753706350955
2050,0.0
2053,0.0
2054,0.0
2055,0.0
2056,30.04068017749749
2057,30.04068017749749
2063,24.09367418611283
2285,12.20000000000001
2286,12.20000000000001
2,1, 1,21, 0,13, 0.00,60.00,WinterDesignDay
7,-6.300000000000007
770,19.241338758561687
2050,0.0
2053,0.055260860590174629
2054,0.012438750943966975
2055,0.042822109646207657
2056,30.038004637948537
2057,28.782244524382596
2063,24.085323702355788
2285,12.20000000000001
2286,12.20000000000001
2,1, 1,21, 0,14, 0.00,60.00,WinterDesignDay
7,-6.300000000000007
770,19.122681590898354
2050,0.0
2053,0.055260860590174629
2054,0.012450129993421116
2055,0.04281073059675351
2056,30.04131517554539
2057,28.78440875977051
2063,24.068286058540229
2285,12.20000000000001
2286,12.20000000000001
2,1, 1,21, 0,15, 0.00,60.00,WinterDesignDay
7,-6.300000000000007
770,19.228862335534474
2050,0.0
2053,0.0
2054,0.0
2055,0.0
2056,30.04281432262058
2057,30.04281432262058
2063,24.07890820198302
2285,12.20000000000001
2286,12.20000000000001
2,1, 1,21, 0,16, 0.00,60.00,WinterDesignDay
7,-6.300000000000007
770,19.193485519787907
2050,0.0
2053,0.055260860590174629
2054,0.01244518771004216
2055,0.04281567288013247
2056,30.03856016853009
2057,28.78215162829195
2063,24.093717346926789
2285,12.20000000000001
2286,12.20000000000001
2,1, 1,21, 0,17, 0.00,60.00,WinterDesignDay
7,-6.300000000000007
770,19.12445697764966
2050,0.0
2053,0.055260860590174629
2054,0.012430884642666347
2055,0.04282997594750827
2056,30.033849371797368
2057,28.77888169336349
2063,24.10020854598037
2285,12.20000000000001
2286,12.20000000000001
2,1, 1,21, 0,18, 0.00,60.00,WinterDesignDay
7,-6.300000000000007
770,19.269927667084425
2050,0.0
2053,0.0
2054,0.0
2055,0.0
2056,30.010345167916687
2057,30.010345167916687
2063,24.069085514339276
2285,12.20000000000001
2286,12.20000000000001
2,1, 1,21, 0,19, 0.00,60.00,WinterDesignDay
7,-6.300000000000007
770,19.460571028197476
2050,0.0
2053,0.12157389329838417
2054,0.029798545306925964
2055,0.09177534799145822
2056,30.43172424573548
2057,27.424695311098373
2063,22.52849274199513
2285,12.20000000000001
2286,12.20000000000001
2,1, 1,21, 0,20, 0.00,60.00,WinterDesignDay
7,-6.300000000000007
770,19.25210873458751
2050,0.0
2053,0.03315651635410478
2054,0.00749015209353788
2055,0.0256663642605669
2056,30.221995399234353
2057,29.46582932617488
2063,23.29692357911416
2285,12.20000000000001
2286,12.20000000000001
2,1, 1,21, 0,21, 0.00,60.00,WinterDesignDay
7,-6.300000000000007
770,19.21251488165247
2050,0.0
2053,0.02210434423606985
2054,0.004976839192961471
2055,0.017127505043108384
2056,30.011277074597336
2057,29.508838159643628
2063,23.750775722628395
2285,12.20000000000001
2286,12.20000000000001
2,1, 1,21, 0,22, 0.00,60.00,WinterDesignDay
7,-6.300000000000007
770,19.13089245404388
2050,0.0
2053,0.0442086884721397
2054,0.009946187330735886
2055,0.03426250114140381
2056,30.061740514983684
2057,29.057617318681016
2063,24.001430090905467
2285,12.20000000000001
2286,12.20000000000001
2,1, 1,21, 0,23, 0.00,60.00,WinterDesignDay
7,-6.300000000000007
770,19.131424761660527
2050,0.0
2053,0.07736520482624448
2054,0.017456196100710247
2055,0.05990900872553424
2056,30.09101523849704
2057,28.32872564809288
2063,23.54421532229865
2285,12.20000000000001
2286,12.20000000000001
2,1, 1,21, 0,24, 0.00,60.00,WinterDesignDay
7,-6.300000000000007
770,19.13138592290563
2050,0.0
2053,0.055260860590174629
2054,0.012492372108871764
2055,0.042768488481302869
2056,30.125740075757624
2057,28.864578275519724
2063,23.54779979721823
2285,12.20000000000001
2286,12.20000000000001
1,ATLANTA-HARTSFIELD.JACKSON.INTL.AP_GA_USA ANN CLG .4% CONDNS DB=>MWB,  33.63, -84.43,  -5.00, 308.00
2,1, 7,21, 0, 1, 0.00,60.00,SummerDesignDay
7,26.32025
770,22.977665815531738
2050,2734.6855651735706
2053,0.21355761913455935
2054,0.08091785390951713
2055,0.1326397652250423
2056,11.969947682271503
2057,12.938044197490843
2063,27.513392082405937
2285,6.848306957643531
2286,7.826492659168184
2,1, 7,21, 0, 2, 0.00,60.00,SummerDesignDay
7,25.84683333333334
770,22.98443971318117
2050,3596.5542705394416
2053,0.280996867282315
2054,0.10991567991014387
2055,0.17108118737217116
2056,11.97081154371609
2057,13.244015711540622
2063,27.79200843471824
2285,7.093695317562078
2286,8.380174736068407
2,1, 7,21, 0, 3, 0.00,60.00,SummerDesignDay
7,25.515125
770,22.976317125708719
2050,2733.941366577342
2053,0.21355761913455935
2054,0.08550253445105811
2055,0.1280550846835013
2056,11.975271227818427
2057,12.943104505822256
2063,27.805632676215667
2285,7.259376014508664
2286,8.237298481220054
2,1, 7,21, 0, 4, 0.00,60.00,SummerDesignDay
7,25.230124999999995
770,22.969458535845115
2050,2875.750103923577
2053,0.22479749382585194
2054,0.09145156939401358
2055,0.13334592443183847
2056,11.978349392545228
2057,12.996384540103902
2063,27.068533811296093
2285,7.4081796664078169
2286,8.436835019327294
2,1, 7,21, 0, 5, 0.00,60.00,SummerDesignDay
7,24.993416666666673
770,22.984087265142855
2050,3458.3988404025396
2053,0.2697569925910223
2054,0.11194005344637267
2055,0.15781693914464973
2056,11.967617604098742
2057,13.191912065290288
2063,27.537083023795334
2285,7.526110095604262
2286,8.76314877903217
2,1, 7,21, 0, 6, 0.00,60.00,SummerDesignDay
7,24.996583333333335
770,22.966741835087068
2050,2153.627868209695
2053,0.16859812036938896
2054,0.06972922136199006
2055,0.09886889900739895
2056,11.981159961290607
2057,12.74355989283969
2063,27.521879870102376
2285,7.559623623924501
2286,8.329988719772642
2,1, 7,21, 0, 7, 0.00,60.00,SummerDesignDay
7,25.42804166666666
770,23.079172008499869
2050,5441.004293109014
2053,0.370915864812656
2054,0.17258104393921809
2055,0.1983348208734377
2056,11.704352808336397
2057,13.630248375419857
2063,30.036102191056384
2285,7.369492303512296
2286,9.312908963161055
2,1, 7,21, 0, 8, 0.00,60.00,SummerDesignDay
7,26.575958333333334
770,23.015486409149586
2050,5439.3549886394
2053,0.41587536357782647
2054,0.16164570510139829
2055,0.2542296584764279
2056,11.919385209657554
2057,13.844915896787305
2063,30.036102191056384
2285,6.878044032172543
2286,8.823221714346286
2,1, 7,21, 0, 9, 0.00,60.00,SummerDesignDay
7,28.287541666666664
770,23.01865426233677
2050,5574.78593316641
2053,0.42711523826911909
2054,0.16198866142568228
2055,0.26512657684343657
2056,11.92175163036344
2057,13.89522851972789
2063,30.036102191056384
2285,6.700000000220312
2286,8.693654921879484
2,1, 7,21, 0,10, 0.00,60.00,SummerDesignDay
7,29.995958333333328
770,23.017563020042059
2050,5134.68829717143
2053,0.3933956141952412
2054,0.14920056711950553
2055,0.24419504707573556
2056,11.925553879074837
2057,13.743235921016286
2063,30.036102191056384
2285,6.699999999999993
2286,8.536267071629725
2,1, 7,21, 0,11, 0.00,60.00,SummerDesignDay
7,31.514374999999995
770,23.015006178618028
2050,5397.59230592334
2053,0.41587536357782647
2054,0.1568496316799201
2055,0.259025731897906
2056,11.934985936264912
2057,13.845745770742948
2063,30.036102191056384
2285,6.699999999999993
2286,8.63040696434078
2,1, 7,21, 0,12, 0.00,60.00,SummerDesignDay
7,32.697916666666667
770,23.01503101754113
2050,5395.128510792866
2053,0.41587536357782647
2054,0.1567788313184631
2055,0.259096532259363
2056,11.936154903517567
2057,13.846043363577556
2063,30.036102191056384
2285,6.699999999999993
2286,8.62953559786468
2,1, 7,21, 0,13, 0.00,60.00,SummerDesignDay
7,33.55133333333333
770,23.023011925660815
2050,5857.036733007679
2053,0.44959498765170438
2054,0.17019369455399689
2055,0.2794012930977071
2056,11.921042650201543
2057,13.994439907239129
2063,28.287340309754673
2285,6.699999999999993
2286,8.794637327069882
2,1, 7,21, 0,14, 0.00,60.00,SummerDesignDay
7,34.16645833333333
770,23.171045188301897
2050,9660.05300853708
2053,0.674392481477556
2054,0.28041893831705969
2055,0.3939735431604963
2056,11.58063673667467
2057,15.0
2063,29.51116234887651
2285,6.699999999999993
2286,10.151220545834415
2,1, 7,21, 0,15, 0.00,60.00,SummerDesignDay
7,34.40000000000004
770,23.396572992655515
2050,11253.098566459445
2053,0.674392481477556
2054,0.3261833057814012
2055,0.34820917569615519
2056,11.017392444647138
2057,15.0
2063,29.25893787736112
2285,6.699999999999993
2286,10.714459698681749
2,1, 7,21, 0,16, 0.00,60.00,SummerDesignDay
7,34.110250000000018
770,23.498948175883414
2050,12001.796186782032
2053,0.674392481477556
2054,0.34768717637004317
2055,0.32670530510751297
2056,10.752733868283558
2057,15.0
2063,28.522373422170845
2285,6.699999999999993
2286,10.97911586076512
2,1, 7,21, 0,17, 0.00,60.00,SummerDesignDay
7,33.44366666666667
770,23.422207002505276
2050,11479.69400671118
2053,0.674392481477556
2054,0.33269194861471387
2055,0.34170053286284238
2056,10.937287417031453
2057,15.0
2063,28.28622313967193
2285,6.699999999999993
2286,10.794563995512192
2,1, 7,21, 0,18, 0.00,60.00,SummerDesignDay
7,32.58708333333333
770,23.134419312655554
2050,8209.533652489208
2053,0.5732336092559229
2054,0.23831189901716558
2055,0.33492171023875708
2056,11.643684998961867
2057,14.549599799651578
2063,28.035219293811996
2285,6.699999999999993
2286,9.63299349587768
2,1, 7,21, 0,19, 0.00,60.00,SummerDesignDay
7,31.395624999999997
770,22.979430160767035
2050,3327.881320196367
2053,0.2585171178997297
2054,0.09671432751647947
2055,0.16180279038325036
2056,11.96043825596244
2057,13.138524416134168
2063,27.540724391487424
2285,6.699999999999993
2286,7.890299329298632
2,1, 7,21, 0,20, 0.00,60.00,SummerDesignDay
7,30.16379166666667
770,22.97465072683691
2050,1871.1521073594257
2053,0.14611837098680378
2054,0.0543822901852691
2055,0.0917360808015347
2056,11.972550776011394
2057,12.63495079329236
2063,28.06090404867747
2285,6.699999999999993
2286,7.369303144585477
2,1, 7,21, 0,21, 0.00,60.00,SummerDesignDay
7,29.215374999999999
770,22.99738372879309
2050,4197.1332547959459
2053,0.32595636604748548
2054,0.12197602215922313
2055,0.20398034388826234
2056,11.957318340240518
2057,13.44312356527892
2063,26.815735435799558
2285,6.699999999999993
2286,8.201204434698674
2,1, 7,21, 0,22, 0.00,60.00,SummerDesignDay
7,28.360375
770,22.995309701471674
2050,3915.9528839291394
2053,0.3034766166649002
2054,0.11380174951941455
2055,0.18967486714548568
2056,11.95853455028118
2057,13.34479799191875
2063,27.513044709735867
2285,6.699999999999993
2286,8.100600610110114
2,1, 7,21, 0,23, 0.00,60.00,SummerDesignDay
7,27.60195833333334
770,22.881996013375635
2050,2181.593610922677
2053,0.16859812036938896
2054,0.06339746746503358
2055,0.10520065290435543
2056,11.93286376735892
2057,12.705154989825083
2063,27.54120098129023
2285,6.699999999999993
2286,7.480256296462414
2,1, 7,21, 0,24, 0.00,60.00,SummerDesignDay
7,26.936958333333334
770,22.973185693482188
2050,2294.8596747007256
2053,0.17983799506068155
2054,0.0667381009161989
2055,0.11309989414448273
2056,11.976553119455499
2057,12.78895086892873
2063,26.278311665255225
2285,6.701285848132626
2286,7.522179780414707
1,RUNPERIOD 1,  33.63, -84.43,  -5.00, 308.00
2,1, 7, 1, 0, 1, 0.00,60.00,Monday
7,21.118333333333337
770,22.731173906836813
2050,0.0
2053,0.0
2054,0.0
2055,0.0
2056,11.991997125377188
2057,11.991997125377188
2063,11.939293244488575
2285,7.935186983256544
2286,7.935186983256544
2,1, 7, 1, 0, 2, 0.00,60.00,Monday
7,22.098333333333334
770,22.771553230410864
2050,0.0
2053,0.0
2054,0.0
2055,0.0
2056,11.991997125377188
2057,11.991997125377188
2063,11.939293244488575
2285,7.935186983256544
2286,7.935186983256544
2,1, 7, 1, 0, 3, 0.00,60.00,Monday
7,21.949166666666675
770,22.752900208837699
2050,0.0
2053,0.0
2054,0.0
2055,0.0
2056,11.991997125377188
2057,11.991997125377188
2063,11.939293244488575
2285,7.935186983256544
2286,7.935186983256544
2,1, 7, 1, 0, 4, 0.00,60.00,Monday
7,21.79833333333333
770,22.741610338481445
2050,0.0
2053,0.0
2054,0.0
2055,0.0
2056,11.991997125377188
2057,11.991997125377188
2063,11.939293244488575
2285,7.935186983256544
2286,7.935186983256544
2,1, 7, 1, 0, 5, 0.00,60.00,Monday
7,21.700000000000025
770,22.739724630240468
2050,0.0
2053,0.0
2054,0.0
2055,0.0
2056,11.991997125377188
2057,11.991997125377188
2063,11.939293244488575
2285,7.935186983256544
2286,7.935186983256544
2,1, 7, 1, 0, 6, 0.00,60.00,Monday
7,21.954166666666663
770,22.80073573043422
2050,0.0
2053,0.0
2054,0.0
2055,0.0
2056,11.991997125377188
2057,11.991997125377188
2063,12.39839925781529
2285,7.935186983256544
2286,7.935186983256544
2,1, 7, 1, 0, 7, 0.00,60.00,Monday
7,22.200000000000025
770,22.92364907324026
2050,2172.4142407157257
2053,0.16859812036938896
2054,0.08545838186316507
2055,0.08313973850622394
2056,11.976210741483106
2057,12.745255299032062
2063,15.0
2285,8.780548135219002
2286,9.55755779642381
2,1, 7, 1, 0, 8, 0.00,60.00,Monday
7,23.31833333333333
770,22.95066362167133
2050,1279.9587906586208
2053,0.10115887222163339
2054,0.04752677885526181
2055,0.0536320933663716
2056,11.992615180121597
2057,12.44573367501905
2063,22.92249891053531
2285,8.598272386423775
2286,9.056170019358945
2,1, 7, 1, 0, 9, 0.00,60.00,Monday
7,25.823333333333335
770,23.51105396937668
2050,11902.825187849194
2053,0.6631526067862635
2054,0.36578871158202377
2055,0.2973638952042396
2056,10.737762215442137
2057,14.949928289187424
2063,30.018018052987615
2285,7.195904594053476
2286,11.43938924277315
2,1, 7, 1, 0,10, 0.00,60.00,Monday
7,27.759166666666667
770,23.033488870920949
2050,5581.771895391017
2053,0.40463548888653386
2054,0.1620941633728603
2055,0.2425413255136733
2056,11.81141930173718
2057,13.787257611430276
2063,28.574801731944679
2285,6.7000000055849739
2286,8.694953376453656
2,1, 7, 1, 0,11, 0.00,60.00,Monday
7,29.164166666666668
770,22.99994120161848
2050,3961.826660708252
2053,0.3034766166649002
2054,0.11512003642605356
2055,0.18835658023884667
2056,11.933665461505699
2057,13.336153700265586
2063,30.1482080180005
2285,6.699999999999993
2286,8.116825259147025
2,1, 7, 1, 0,12, 0.00,60.00,Monday
7,30.0
770,22.995773459965784
2050,4272.989411811674
2053,0.32595636604748548
2054,0.12415592248960202
2055,0.2018004435578834
2056,11.924842607874068
2057,13.437476924860914
2063,28.884406209990354
2285,6.699999999999993
2286,8.228033281755958
2,1, 7, 1, 0,13, 0.00,60.00,Monday
7,30.86416666666667
770,22.974681397366099
2050,3077.844116077747
2053,0.23603736851714453
2054,0.08943501895799658
2055,0.14660234955914804
2056,11.939844378853112
2057,13.029403513163228
2063,28.55179924532392
2285,6.699999999999993
2286,7.800710161722161
2,1, 7, 1, 0,14, 0.00,60.00,Monday
7,29.717500000000006
770,23.07048768019996
2050,6451.622187253641
2053,0.460834862342997
2054,0.18732621148866444
2055,0.2735086508543321
2056,11.752777839585468
2057,14.03650182231458
2063,25.298064009966184
2285,6.699999999999993
2286,9.005493608038773
2,1, 7, 1, 0,15, 0.00,60.00,Monday
7,28.613333333333335
770,23.069974946523606
2050,7240.546379618506
2053,0.5282741104907527
2054,0.21028024110354064
2055,0.31799386938721177
2056,11.785556702659303
2057,14.348598196232084
2063,29.653491281507426
2285,6.699999999999993
2286,9.287997418558819
2,1, 7, 1, 0,16, 0.00,60.00,Monday
7,28.0275
770,22.934816496242897
2050,850.3979505927177
2053,0.0674392481477556
2054,0.024719860900702819
2055,0.042719387247052788
2056,11.99706167237945
2057,12.298112126257337
2063,28.846384693755977
2285,6.699999999999993
2286,7.004236555286474
2,1, 7, 1, 0,17, 0.00,60.00,Monday
7,25.276666666666665
770,22.966323464688057
2050,3168.0019317122889
2053,0.2472772432084371
2054,0.0998211479820855
2055,0.14745609522635173
2056,11.977474661008954
2057,13.098967500771014
2063,28.511171879835705
2285,7.164569258100938
2286,8.297744308630872
2,1, 7, 1, 0,18, 0.00,60.00,Monday
7,23.594999999999997
770,22.498993568025218
2050,0.0
2053,0.0
2054,0.0
2055,0.0
2056,11.992410491644144
2057,11.992410491644144
2063,27.943079754678977
2285,7.935186983256544
2286,7.935186983256544
2,1, 7, 1, 0,19, 0.00,60.00,Monday
7,23.604999999999995
770,22.628986990261816
2050,0.0
2053,0.0
2054,0.0
2055,0.0
2056,11.992410491644144
2057,11.992410491644144
2063,26.265486043865029
2285,7.935186983256544
2286,7.935186983256544
2,1, 7, 1, 0,20, 0.00,60.00,Monday
7,21.917500000000005
770,22.71715904395398
2050,0.0
2053,0.0
2054,0.0
2055,0.0
2056,11.992410491644144
2057,11.992410491644144
2063,28.31800856063483
2285,7.935186983256544
2286,7.935186983256544
2,1, 7, 1, 0,21, 0.00,60.00,Monday
7,20.304999999999994
770,22.61935510387586
2050,0.0
2053,0.0
2054,0.0
2055,0.0
2056,11.992410491644144
2057,11.992410491644144
2063,27.080121484939278
2285,7.935186983256544
2286,7.935186983256544
2,1, 7, 1, 0,22, 0.00,60.00,Monday
7,20.294999999999996
770,22.72705398508846
2050,0.0
2053,0.0
2054,0.0
2055,0.0
2056,11.992410491644144
2057,11.992410491644144
2063,16.772248605579259
2285,7.935186983256544
2286,7.935186983256544
2,1, 7, 1, 0,23, 0.00,60.00,Monday
7,20.0
770,22.809080500163679
2050,0.0
2053,0.0
2054,0.0
2055,0.0
2056,11.992410491644144
2057,11.992410491644144
2063,13.366497067223767
2285,7.935186983256544
2286,7.935186983256544
2,1, 7, 1, 0,24, 0.00,60.00,Monday
7,20.0
770,22.78661247343814
2050,0.0
2053,0.0
2054,0.0
2055,0.0
2056,11.992410491644144
2057,11.992410491644144
2063,11.937182001044551
2285,7.935186983256544
2286,7.935186983256544
2,2, 7, 2, 0, 1, 0.00,60.00,Tuesday
7,20.0
770,22.662208467510096
2050,0.0
2053,0.0
2054,0.0
2055,0.0
2056,11.992410491644144
2057,11.992410491644144
2063,11.937182001044551
2285,7.935186983256544
2286,7.935186983256544
2,2, 7, 2, 0, 2, 0.00,60.00,Tuesday
7,20.0
770,22.595774701859854
2050,0.0
2053,0.0
2054,0.0
2055,0.0
2056,11.992410491644144
2057,11.992410491644144
2063,11.937182001044551
2285,7.935186983256544
2286,7.935186983256544
2,2, 7, 2, 0, 3, 0.00,60.00,Tuesday
7,19.440833333333335
770,22.547248043442378
2050,0.0
2053,0.0
2054,0.0
2055,0.0
2056,11.992410491644144
2057,11.992410491644144
2063,11.937182001044551
2285,7.935186983256544
2286,7.935186983256544
2,2, 7, 2, 0, 4, 0.00,60.00,Tuesday
7,19.154166666666666
770,22.459008074262255
2050,0.0
2053,0.0
2054,0.0
2055,0.0
2056,11.992410491644144
2057,11.992410491644144
2063,11.937182001044551
2285,7.935186983256544
2286,7.935186983256544
2,2, 7, 2, 0, 5, 0.00,60.00,Tuesday
7,19.399999999999996
770,22.499761840524138
2050,0.0
2053,0.0
2054,0.0
2055,0.0
2056,11.992410491644144
2057,11.992410491644144
2063,11.937182001044551
2285,7.935186983256544
2286,7.935186983256544
2,2, 7, 2, 0, 6, 0.00,60.00,Tuesday
7,19.399999999999996
770,22.549819704908093
2050,0.0
2053,0.0
2054,0.0
2055,0.0
2056,11.992410491644144
2057,11.992410491644144
2063,11.937182001044551
2285,7.935186983256544
2286,7.935186983256544
2,2, 7, 2, 0, 7, 0.00,60.00,Tuesday
7,19.705
770,22.86285119634619
2050,1003.1922530605426
2053,0.0786791228390482
2054,0.04629680285349769
2055,0.032382319985550519
2056,11.988158002863499
2057,12.343295934285662
2063,12.600792567484895
2285,8.145368693290854
2286,8.504223707308878
2,2, 7, 2, 0, 8, 0.00,60.00,Tuesday
7,21.118333333333337
770,22.96535890163913
2050,2011.9197896016934
2053,0.15735824567809637
2054,0.0932805849901861
2055,0.0640776606879103
2056,11.983085703652402
2057,12.695319361743861
2063,22.819311397704053
2285,9.818440980907353
2286,10.538108786310297
2,2, 7, 2, 0, 9, 0.00,60.00,Tuesday
7,23.62333333333333
770,23.48864012097793
2050,11898.082211239454
2053,0.674392481477556
2054,0.4245429203686157
2055,0.2498495611089404
2056,10.789426387546668
2057,15.0
2063,30.261680572881674
2285,8.248243016861626
2286,12.490666693342407
2,2, 7, 2, 0,10, 0.00,60.00,Tuesday
7,25.55916666666667
770,22.98167302050147
2050,4400.1341486202459
2053,0.32595636604748548
2054,0.13728168701405869
2055,0.1886746790334268
2056,11.887832179499715
2057,13.445430156686676
2063,30.261680572881674
2285,7.352324630687197
2286,8.925321162303357
2,2, 7, 2, 0,11, 0.00,60.00,Tuesday
7,26.65916666666666
770,22.985240808408255
2050,3063.116881102188
2053,0.23603736851714453
2054,0.08961376552585823
2055,0.14642360299128638
2056,11.949032495122794
2057,13.033382851367737
2063,29.233697813670877
2285,6.817227536804309
2286,7.912728967978994
2,2, 7, 2, 0,12, 0.00,60.00,Tuesday
7,28.06416666666667
770,22.99688859299176
2050,4373.569230144098
2053,0.3371962407387781
2054,0.1270932863867494
2055,0.21010295435202867
2056,11.941800374743775
2057,13.490054766684148
2063,28.035815437496617
2285,6.700000024469739
2286,8.264184530920267
2,2, 7, 2, 0,13, 0.00,60.00,Tuesday
7,29.459166666666666
770,22.975468824495175
2050,3215.6493590196498
2053,0.2472772432084371
2054,0.09344213229042337
2055,0.15383511091801384
2056,11.952220793103129
2057,13.090565937372272
2063,28.057548701526135
2285,6.699999999999993
2286,7.850027201239375
2,2, 7, 2, 0,14, 0.00,60.00,Tuesday
7,29.440833333333328
770,23.225561523340067
2050,10071.746661286023
2053,0.674392481477556
2054,0.2922463659544268
2055,0.3821461155231291
2056,11.435070841676789
2057,15.0
2063,28.035506479502279
2285,6.699999999999993
2286,10.29678511259095
2,2, 7, 2, 0,15, 0.00,60.00,Tuesday
7,29.76416666666667
770,23.090206440715315
2050,8243.086046882858
2053,0.6069532333298007
2054,0.23941874606847164
2055,0.3675344872613287
2056,11.781857592948855
2057,14.699800458830373
2063,29.302215019343593
2285,6.699999999999993
2286,9.646615875690849
2,2, 7, 2, 0,16, 0.00,60.00,Tuesday
7,30.854166666666669
770,23.35645414896161
2050,10983.981413100382
2053,0.674392481477556
2054,0.31845355038832076
2055,0.355938931089235
2056,11.11252629744481
2057,15.0
2063,28.550623554660495
2285,6.699999999999993
2286,10.619326713773616
2,2, 7, 2, 0,17, 0.00,60.00,Tuesday
7,30.84583333333334
770,23.277678990965364
2050,10453.129307499572
2053,0.674392481477556
2054,0.30320419917566907
2055,0.371188282301887
2056,11.300207467283725
2057,15.0
2063,26.55147321905391
2285,6.699999999999993
2286,10.431647256274765
2,2, 7, 2, 0,18, 0.00,60.00,Tuesday
7,30.59999999999997
770,23.000701916485089
2050,4464.393710912626
2053,0.32595636604748548
2054,0.12965594880669674
2055,0.19630041724078865
2056,11.854293874994293
2057,13.434619686649793
2063,27.083273942087439
2285,6.699999999999993
2286,8.295724158635057
2,2, 7, 2, 0,19, 0.00,60.00,Tuesday
7,29.430833333333337
770,22.70532078031623
2050,0.0
2053,0.0
2054,0.0
2055,0.0
2056,11.969599782207867
2057,11.969599782207867
2063,25.606910820706369
2285,6.699999999999993
2286,6.699999999999993
2,2, 7, 2, 0,20, 0.00,60.00,Tuesday
7,26.927500000000003
770,22.641304917701935
2050,0.0
2053,0.0
2054,0.0
2055,0.0
2056,11.969599782207867
2057,11.969599782207867
2063,27.344927186863676
2285,6.699999999999993
2286,6.699999999999993
2,2, 7, 2, 0,21, 0.00,60.00,Tuesday
7,24.430833333333334
770,22.544926950794517
2050,0.0
2053,0.0
2054,0.0
2055,0.0
2056,11.969599782207867
2057,11.969599782207867
2063,27.791377306318464
2285,6.699999999999993
2286,6.699999999999993
2,2, 7, 2, 0,22, 0.00,60.00,Tuesday
7,23.045833333333339
770,22.801114463654377
2050,0.0
2053,0.0
2054,0.0
2055,0.0
2056,11.969599782207867
2057,11.969599782207867
2063,16.507232097655537
2285,6.699999999999993
2286,6.699999999999993
2,2, 7, 2, 0,23, 0.00,60.00,Tuesday
7,22.494999999999999
770,22.967981933155007
2050,850.1548436876074
2053,0.0674392481477556
2054,0.03108741876938014
2055,0.036351829378375468
2056,11.987537759778466
2057,12.28850222675577
2063,13.530565882779138
2285,8.27702534819712
2286,8.581175917360766
2,2, 7, 2, 0,24, 0.00,60.00,Tuesday
7,21.640833333333334
770,22.96935488062334
2050,0.0
2053,0.0
2054,0.0
2055,0.0
2056,11.992260386163132
2057,11.992260386163132
2063,11.959791481612039
2285,8.713807694790777
2286,8.713807694790777
End of Data
 Number of Records Written=        1056
