Program Version,EnergyPlus, Version 9.3.0-baff08990c, YMD=2021.12.09 04:44
1,5,Environment Title[],Latitude[deg],Longitude[deg],Time Zone[],Elevation[m]
2,8,Day of Simulation[],Month[],Day of Month[],DST Indicator[1=yes 0=no],Hour[],StartMinute[],EndMinute[],DayType
3,5,Cumulative Day of Simulation[],Month[],Day of Month[],DST Indicator[1=yes 0=no],DayType  ! When Daily Report Variables Requested
4,2,Cumulative Days of Simulation[],Month[]  ! When Monthly Report Variables Requested
5,1,Cumulative Days of Simulation[] ! When Run Period Report Variables Requested
6,1,Calendar Year of Simulation[] ! When Annual Report Variables Requested
1140,1,CORNER_CLASS_1_POD_1_ZN_1_FLR_1,Zone Mean Air Temperature [C] !Hourly
1141,1,MULT_CLASS_1_POD_1_ZN_1_FLR_1,Zone Mean Air Temperature [C] !Hourly
1142,1,CORRIDOR_POD_1_ZN_1_FLR_1,Zone Mean Air Temperature [C] !Hourly
1143,1,CORNER_CLASS_2_POD_1_ZN_1_FLR_1,Zone Mean Air Temperature [C] !Hourly
1144,1,MULT_CLASS_2_POD_1_ZN_1_FLR_1,Zone Mean Air Temperature [C] !Hourly
2426,1,CORNER_CLASS_1_POD_1_ZN_1_FLR_1_LOTEMP,Zone Radiant HVAC Pump Electric Power [W] !Hourly
2468,1,MULT_CLASS_1_POD_1_ZN_1_FLR_1_LOTEMP,Zone Radiant HVAC Pump Electric Power [W] !Hourly
2474,1,CORRIDOR_POD_1_ZN_1_FLR_1_LOTEMP,Zone Radiant HVAC Pump Electric Power [W] !Hourly
2480,1,CORNER_CLASS_2_POD_1_ZN_1_FLR_1_LOTEMP,Zone Radiant HVAC Pump Electric Power [W] !Hourly
2486,1,MULT_CLASS_2_POD_1_ZN_1_FLR_1_LOTEMP,Zone Radiant HVAC Pump Electric Power [W] !Hourly
2732,1,HP_RADSYS,Heat Pump Electric Power [W] !Hourly
2759,1,HOT WATER LOOP HW SUPPLY PUMP2,Pump Electric Energy [J] !Hourly
End of Data Dictionary
1,RUNPERIOD 1,  40.78, -73.97,  -5.00,  40.00
2,1, 7,23, 1, 1, 0.00,60.00,Sunday
1140,33.76487939834725
1141,32.93444867936326
1142,32.59622073853177
1143,33.08631719124278
1144,32.191003052482347
2426,0.0
2468,0.0
2474,0.0
2480,0.0
2486,0.0
2732,0.0
2759,0.0
2,1, 7,23, 1, 2, 0.00,60.00,Sunday
1140,33.520745510306728
1141,32.754626077466429
1142,32.495775530120017
1143,32.853069401812387
1144,32.03715206125978
2426,0.0
2468,0.0
2474,0.0
2480,0.0
2486,0.0
2732,0.0
2759,0.0
2,1, 7,23, 1, 3, 0.00,60.00,Sunday
1140,33.38165299014491
1141,32.64228295131972
1142,32.39528734740987
1143,32.726500793777777
1144,31.946887668830777
2426,0.0
2468,0.0
2474,0.0
2480,0.0
2486,0.0
2732,0.0
2759,0.0
2,1, 7,23, 1, 4, 0.00,60.00,Sunday
1140,33.258437507333479
1141,32.566113950780678
1142,32.307995039083518
1143,32.61854852880783
1144,31.885678308332957
2426,0.0
2468,0.0
2474,0.0
2480,0.0
2486,0.0
2732,0.0
2759,0.0
2,1, 7,23, 1, 5, 0.00,60.00,Sunday
1140,33.06289121000436
1141,32.43128258434824
1142,32.22321727893406
1143,32.43610900222279
1144,31.768253294739787
2426,0.0
2468,0.0
2474,0.0
2480,0.0
2486,0.0
2732,0.0
2759,0.0
2,1, 7,23, 1, 6, 0.00,60.00,Sunday
1140,32.964668030184757
1141,32.358627123486488
1142,32.165023363365659
1143,32.348387903064338
1144,31.706359328876706
2426,0.0
2468,0.0
2474,0.0
2480,0.0
2486,0.0
2732,0.0
2759,0.0
2,1, 7,23, 1, 7, 0.00,60.00,Sunday
1140,32.927893836989159
1141,32.352229144873458
1142,32.173293806170978
1143,32.328369789008387
1144,31.710742306265297
2426,0.0
2468,0.0
2474,0.0
2480,0.0
2486,0.0
2732,0.0
2759,0.0
2,1, 7,23, 1, 8, 0.00,60.00,Sunday
1140,33.007046644981027
1141,32.4540989987775
1142,32.238802984030979
1143,32.40355357480005
1144,31.809625886467058
2426,0.0
2468,0.0
2474,0.0
2480,0.0
2486,0.0
2732,0.0
2759,0.0
2,1, 7,23, 1, 9, 0.00,60.00,Sunday
1140,33.332165762907987
1141,32.73166847043092
1142,32.35104871241241
1143,32.71015143179304
1144,32.04442283788223
2426,0.0
2468,0.0
2474,0.0
2480,0.0
2486,0.0
2732,0.0
2759,0.0
2,1, 7,23, 1,10, 0.00,60.00,Sunday
1140,33.74681609530988
1141,33.058286556312797
1142,32.52746460920976
1143,33.09398683441468
1144,32.32256539618188
2426,0.0
2468,0.0
2474,0.0
2480,0.0
2486,0.0
2732,0.0
2759,0.0
2,1, 7,23, 1,11, 0.00,60.00,Sunday
1140,34.206045849829319
1141,33.436564612996537
1142,32.775859914040029
1143,33.519141088684467
1144,32.655836555457309
2426,0.0
2468,0.0
2474,0.0
2480,0.0
2486,0.0
2732,0.0
2759,0.0
2,1, 7,23, 1,12, 0.00,60.00,Sunday
1140,34.639110758806108
1141,33.83119198827522
1142,32.99224420028853
1143,33.80436873724061
1144,32.89043843085042
2426,0.0
2468,0.0
2474,0.0
2480,0.0
2486,0.0
2732,0.0
2759,0.0
2,1, 7,23, 1,13, 0.00,60.00,Sunday
1140,35.01892237622102
1141,34.16383727754066
1142,33.18287151509537
1143,34.05737316259478
1144,33.083554082981027
2426,0.0
2468,0.0
2474,0.0
2480,0.0
2486,0.0
2732,0.0
2759,0.0
2,1, 7,23, 1,14, 0.00,60.00,Sunday
1140,35.3511167826393
1141,34.4148525169165
1142,33.357111233821338
1143,34.32687618889041
1144,33.25916588905561
2426,0.0
2468,0.0
2474,0.0
2480,0.0
2486,0.0
2732,0.0
2759,0.0
2,1, 7,23, 1,15, 0.00,60.00,Sunday
1140,35.77791203812418
1141,34.51431472545594
1142,33.52449005906383
1143,34.7510217796043
1144,33.342135792419018
2426,0.0
2468,0.0
2474,0.0
2480,0.0
2486,0.0
2732,0.0
2759,0.0
2,1, 7,23, 1,16, 0.00,60.00,Sunday
1140,36.270531553043117
1141,34.528558248242088
1142,33.659898192741227
1143,35.260602184203197
1144,33.35637443410816
2426,0.0
2468,0.0
2474,0.0
2480,0.0
2486,0.0
2732,0.0
2759,0.0
2,1, 7,23, 1,17, 0.00,60.00,Sunday
1140,36.46567953521035
1141,34.41268308297733
1142,33.713781909088407
1143,35.51794674304068
1144,33.30406830750824
2426,0.0
2468,0.0
2474,0.0
2480,0.0
2486,0.0
2732,0.0
2759,0.0
2,1, 7,23, 1,18, 0.00,60.00,Sunday
1140,36.241817058340668
1141,34.16879008265289
1142,33.66409685124302
1143,35.38843833629564
1144,33.16326722614824
2426,0.0
2468,0.0
2474,0.0
2480,0.0
2486,0.0
2732,0.0
2759,0.0
2,1, 7,23, 1,19, 0.00,60.00,Sunday
1140,35.65698107206985
1141,33.886859682677229
1142,33.50235428352069
1143,34.855779516517149
1144,32.96365271456297
2426,0.0
2468,0.0
2474,0.0
2480,0.0
2486,0.0
2732,0.0
2759,0.0
2,1, 7,23, 1,20, 0.00,60.00,Sunday
1140,34.95180054831923
1141,33.578929463612599
1142,33.25428623762544
1143,34.21409817822966
1144,32.7269136177053
2426,0.0
2468,0.0
2474,0.0
2480,0.0
2486,0.0
2732,0.0
2759,0.0
2,1, 7,23, 1,21, 0.00,60.00,Sunday
1140,34.45806902281247
1141,33.336246991315018
1142,33.03051624412077
1143,33.73506765685499
1144,32.52284999534924
2426,0.0
2468,0.0
2474,0.0
2480,0.0
2486,0.0
2732,0.0
2759,0.0
2,1, 7,23, 1,22, 0.00,60.00,Sunday
1140,34.26169928052805
1141,33.2352918444621
1142,32.88341586132897
1143,33.54388906944024
1144,32.438110468243589
2426,0.0
2468,0.0
2474,0.0
2480,0.0
2486,0.0
2732,0.0
2759,0.0
2,1, 7,23, 1,23, 0.00,60.00,Sunday
1140,34.10838433932686
1141,33.15103012249878
1142,32.77890056979349
1143,33.4024648137803
1144,32.36954031673166
2426,0.0
2468,0.0
2474,0.0
2480,0.0
2486,0.0
2732,0.0
2759,0.0
2,1, 7,23, 1,24, 0.00,60.00,Sunday
1140,33.96559573970936
1141,33.06682826445679
1142,32.69411321465841
1143,33.272830062384958
1144,32.303060973580979
2426,0.0
2468,0.0
2474,0.0
2480,0.0
2486,0.0
2732,0.0
2759,0.0
2,2, 7,24, 1, 1, 0.00,60.00,Monday
1140,33.82919511274531
1141,32.98405104316787
1142,32.62070942645606
1143,33.150491212547517
1144,32.23912233637498
2426,0.0
2468,0.0
2474,0.0
2480,0.0
2486,0.0
2732,0.0
2759,0.0
2,2, 7,24, 1, 2, 0.00,60.00,Monday
1140,33.67391376203504
1141,32.88252352007764
1142,32.542890893821887
1143,33.010704664294809
1144,32.15899854682938
2426,0.0
2468,0.0
2474,0.0
2480,0.0
2486,0.0
2732,0.0
2759,0.0
2,2, 7,24, 1, 3, 0.00,60.00,Monday
1140,33.483777275231897
1141,32.754424601582147
1142,32.4634604033236
1143,32.837404957107839
1144,32.05449799491933
2426,0.0
2468,0.0
2474,0.0
2480,0.0
2486,0.0
2732,0.0
2759,0.0
2,2, 7,24, 1, 4, 0.00,60.00,Monday
1140,33.30436249850188
1141,32.628457425306617
1142,32.38853902447012
1143,32.673551546660338
1144,31.95373003216493
2426,0.0
2468,0.0
2474,0.0
2480,0.0
2486,0.0
2732,0.0
2759,0.0
2,2, 7,24, 1, 5, 0.00,60.00,Monday
1140,33.171657960215757
1141,32.53440135224234
1142,32.31354442173448
1143,32.55370462930918
1144,31.87874366915212
2426,0.0
2468,0.0
2474,0.0
2480,0.0
2486,0.0
2732,0.0
2759,0.0
2,2, 7,24, 1, 6, 0.00,60.00,Monday
1140,33.109689753120587
1141,32.47684844140797
1142,32.25956601959637
1143,32.50960014113032
1144,31.829765238602695
2426,0.0
2468,0.0
2474,0.0
2480,0.0
2486,0.0
2732,0.0
2759,0.0
2,2, 7,24, 1, 7, 0.00,60.00,Monday
1140,29.067015670480637
1141,29.32140128625544
1142,30.171616342369693
1143,28.842597105080097
1144,28.87776925295596
2426,100.0
2468,100.0
2474,100.0
2480,100.0
2486,100.0
2732,0.0
2759,0.0
2,2, 7,24, 1, 8, 0.00,60.00,Monday
1140,27.8112204207226
1141,28.420216056342896
1142,29.259661080937446
1143,27.7087920244633
1144,28.07994896782039
2426,100.0
2468,100.0
2474,100.0
2480,100.0
2486,100.0
2732,0.0
2759,0.0
2,2, 7,24, 1, 9, 0.00,60.00,Monday
1140,27.02757024392625
1141,27.874562837848737
1142,28.665916970169179
1143,26.959512920034287
1144,27.56861080468555
2426,100.0
2468,100.0
2474,100.0
2480,100.0
2486,100.0
2732,0.0
2759,0.0
2,2, 7,24, 1,10, 0.00,60.00,Monday
1140,26.35348619316155
1141,27.364079796050043
1142,28.152769117962504
1143,26.317119077993636
1144,27.098936460341969
2426,100.0
2468,100.0
2474,100.0
2480,100.0
2486,100.0
2732,0.0
2759,0.0
2,2, 7,24, 1,11, 0.00,60.00,Monday
1140,25.790036476545347
1141,26.928583096049409
1142,27.679643683253006
1143,25.74872795496389
1144,26.667048989424587
2426,100.0
2468,100.0
2474,100.0
2480,100.0
2486,100.0
2732,0.0
2759,0.0
2,2, 7,24, 1,12, 0.00,60.00,Monday
1140,25.303900476824635
1141,26.553321755927035
1142,27.222040520671169
1143,25.215364931543684
1144,26.24299835121885
2426,100.0
2468,100.0
2474,100.0
2480,100.0
2486,100.0
2732,0.0
2759,0.0
2,2, 7,24, 1,13, 0.00,60.00,Monday
1140,24.807043834831434
1141,26.136366777339867
1142,26.749943320691228
1143,24.68499805237806
1144,25.78743011041404
2426,100.0
2468,100.0
2474,100.0
2480,100.0
2486,100.0
2732,0.0
2759,0.0
2,2, 7,24, 1,14, 0.00,60.00,Monday
1140,24.32453753356362
1141,25.66560011485605
1142,26.255787216226318
1143,24.200355639863564
1144,25.31060815387378
2426,100.0
2468,100.0
2474,100.0
2480,100.0
2486,100.0
2732,0.0
2759,0.0
2,2, 7,24, 1,15, 0.00,60.00,Monday
1140,24.02486837325751
1141,25.095948643000957
1142,25.717708696756274
1143,24.001165648645679
1144,24.76095463178427
2426,100.0
2468,100.0
2474,100.0
2480,100.0
2486,100.0
2732,0.0
2759,0.0
2,2, 7,24, 1,16, 0.00,60.00,Monday
1140,23.999486756683767
1141,24.317966329198144
1142,25.05168752646258
1143,23.999514527240089
1144,24.124361475041736
2426,100.0
2468,100.0
2474,100.0
2480,100.0
2486,100.0
2732,0.0
2759,0.0
2,2, 7,24, 1,17, 0.00,60.00,Monday
1140,23.999662700460588
1141,23.99974999613249
1142,24.399863458160597
1143,23.999680787531657
1144,23.9997732578858
2426,100.0
2468,100.0
2474,100.0
2480,100.0
2486,100.0
2732,0.0
2759,0.0
2,2, 7,24, 1,18, 0.00,60.00,Monday
1140,23.991051687158256
1141,23.999788765770388
1142,24.010848748954368
1143,23.98165049456582
1144,23.99980151686527
2426,100.0
2468,100.0
2474,100.0
2480,100.0
2486,100.0
2732,0.0
2759,0.0
2,2, 7,24, 1,19, 0.00,60.00,Monday
1140,23.697859504929757
1141,23.999363623372799
1142,23.995476187114375
1143,23.6716172553254
1144,23.999489387326233
2426,100.0
2468,100.0
2474,100.0
2480,100.0
2486,100.0
2732,0.0
2759,0.0
2,2, 7,24, 1,20, 0.00,60.00,Monday
1140,23.14976500494668
1141,23.733773470373984
1142,23.726229825156986
1143,23.15169931483916
1144,23.753993285747389
2426,80.0
2468,100.0
2474,100.0
2480,80.0
2486,100.0
2732,0.0
2759,0.0
2,2, 7,24, 1,21, 0.00,60.00,Monday
1140,23.63617029954492
1141,24.389700450731405
1142,24.4306153012247
1143,23.65990843366378
1144,24.467445085932657
2426,0.0
2468,0.0
2474,0.0
2480,0.0
2486,0.0
2732,0.0
2759,0.0
2,2, 7,24, 1,22, 0.00,60.00,Monday
1140,23.72366017789138
1141,24.60269238663833
1142,24.604732854393775
1143,23.764946179112969
1144,24.73046732732227
2426,0.0
2468,0.0
2474,0.0
2480,0.0
2486,0.0
2732,0.0
2759,0.0
2,2, 7,24, 1,23, 0.00,60.00,Monday
1140,23.64281473541407
1141,24.560244385776565
1142,24.559948377668218
1143,23.69341440261772
1144,24.7038329006588
2426,0.0
2468,0.0
2474,0.0
2480,0.0
2486,0.0
2732,0.0
2759,0.0
2,2, 7,24, 1,24, 0.00,60.00,Monday
1140,23.636138662884599
1141,24.552402072155095
1142,24.509539855890187
1143,23.6987857229543
1144,24.69266875558203
2426,0.0
2468,0.0
2474,0.0
2480,0.0
2486,0.0
2732,0.0
2759,0.0
2,3, 7,25, 1, 1, 0.00,60.00,Tuesday
1140,23.599408044187976
1141,24.519796658989379
1142,24.462307078854843
1143,23.66465865904853
1144,24.66056111384192
2426,0.0
2468,0.0
2474,0.0
2480,0.0
2486,0.0
2732,0.0
2759,0.0
2,3, 7,25, 1, 2, 0.00,60.00,Tuesday
1140,23.598052251111534
1141,24.505287500713693
1142,24.42412611490885
1143,23.661124421563657
1144,24.64626538083223
2426,0.0
2468,0.0
2474,0.0
2480,0.0
2486,0.0
2732,0.0
2759,0.0
2,3, 7,25, 1, 3, 0.00,60.00,Tuesday
1140,23.612279878260787
1141,24.498191713180228
1142,24.394019855933995
1143,23.67434091661513
1144,24.64041957162292
2426,0.0
2468,0.0
2474,0.0
2480,0.0
2486,0.0
2732,0.0
2759,0.0
2,3, 7,25, 1, 4, 0.00,60.00,Tuesday
1140,23.611616037386847
1141,24.48076789112837
1142,24.36329719479812
1143,23.676684990563815
1144,24.6271442981292
2426,0.0
2468,0.0
2474,0.0
2480,0.0
2486,0.0
2732,0.0
2759,0.0
2,3, 7,25, 1, 5, 0.00,60.00,Tuesday
1140,23.56301163340678
1141,24.444002968956519
1142,24.329780059708989
1143,23.634196191605694
1144,24.59594137024028
2426,0.0
2468,0.0
2474,0.0
2480,0.0
2486,0.0
2732,0.0
2759,0.0
2,3, 7,25, 1, 6, 0.00,60.00,Tuesday
1140,23.58286183679407
1141,24.43780155719296
1142,24.31384133900637
1143,23.655707235896608
1144,24.59017653145248
2426,0.0
2468,0.0
2474,0.0
2480,0.0
2486,0.0
2732,0.0
2759,0.0
2,3, 7,25, 1, 7, 0.00,60.00,Tuesday
1140,22.3902073713378
1141,22.969664792319713
1142,23.118753862670994
1143,22.467151573524054
1144,23.104605423520778
2426,10.0
2468,35.0
2474,55.0
2480,10.0
2486,45.0
2732,0.0
2759,0.0
2,3, 7,25, 1, 8, 0.00,60.00,Tuesday
1140,22.719969938163353
1141,23.129120257805835
1142,22.840711130432959
1143,22.778295711233825
1144,23.222999388842309
2426,0.0
2468,75.0
2474,0.0
2480,5.0
2486,80.0
2732,0.0
2759,0.0
2,3, 7,25, 1, 9, 0.00,60.00,Tuesday
1140,23.24392241867735
1141,23.43811604470293
1142,22.91627718318643
1143,23.22801278520351
1144,23.459253261482038
2426,95.0
2468,100.0
2474,0.0
2480,100.0
2486,100.0
2732,0.0
2759,0.0
2,3, 7,25, 1,10, 0.00,60.00,Tuesday
1140,23.569255868719915
1141,23.62523705952631
1142,23.05981104730207
1143,23.490518375784398
1144,23.597848112201978
2426,100.0
2468,100.0
2474,95.0
2480,100.0
2486,100.0
2732,0.0
2759,0.0
2,3, 7,25, 1,11, 0.00,60.00,Tuesday
1140,23.770639331875566
1141,23.768150136720835
1142,23.121430512516829
1143,23.610481161116718
1144,23.66201337275638
2426,100.0
2468,100.0
2474,100.0
2480,100.0
2486,100.0
2732,0.0
2759,0.0
2,3, 7,25, 1,12, 0.00,60.00,Tuesday
1140,23.893681707830017
1141,23.87962321212405
1142,23.13638376804256
1143,23.628300576987625
1144,23.66372613757303
2426,100.0
2468,100.0
2474,100.0
2480,100.0
2486,100.0
2732,0.0
2759,0.0
2,3, 7,25, 1,13, 0.00,60.00,Tuesday
1140,23.949307341546075
1141,23.922268295172907
1142,23.09570046596462
1143,23.59950563561913
1144,23.611057753258526
2426,100.0
2468,100.0
2474,100.0
2480,100.0
2486,100.0
2732,0.0
2759,0.0
2,3, 7,25, 1,14, 0.00,60.00,Tuesday
1140,23.905502302686906
1141,23.83317846201982
1142,23.018012149686038
1143,23.55250122137108
1144,23.511075430316575
2426,100.0
2468,100.0
2474,75.0
2480,100.0
2486,100.0
2732,0.0
2759,0.0
2,3, 7,25, 1,15, 0.00,60.00,Tuesday
1140,23.98618231839955
1141,23.70172787775916
1142,22.96907448868955
1143,23.734554252587434
1144,23.4169759633812
2426,100.0
2468,100.0
2474,0.0
2480,100.0
2486,100.0
2732,0.0
2759,0.0
2,3, 7,25, 1,16, 0.00,60.00,Tuesday
1140,23.99117681542682
1141,23.512943162726434
1142,22.94395210806617
1143,23.8506090187968
1144,23.272307622268273
2426,100.0
2468,100.0
2474,0.0
2480,100.0
2486,100.0
2732,0.0
2759,0.0
2,3, 7,25, 1,17, 0.00,60.00,Tuesday
1140,23.343213604810019
1141,22.91372256600774
1142,22.718549498908556
1143,23.21070075623868
1144,22.788276732731299
2426,95.0
2468,35.0
2474,0.0
2480,80.0
2486,15.0
2732,0.0
2759,0.0
2,3, 7,25, 1,18, 0.00,60.00,Tuesday
1140,22.605778207048738
1141,22.491901811743394
1142,22.40781324690931
1143,22.57269488702581
1144,22.47771710201315
2426,0.0
2468,0.0
2474,0.0
2480,0.0
2486,0.0
2732,0.0
2759,0.0
2,3, 7,25, 1,19, 0.00,60.00,Tuesday
1140,22.225073665577669
1141,22.26921445387984
1142,22.16088326527532
1143,22.249542315622539
1144,22.304553052479045
2426,0.0
2468,0.0
2474,0.0
2480,0.0
2486,0.0
2732,0.0
2759,0.0
2,3, 7,25, 1,20, 0.00,60.00,Tuesday
1140,21.852464536283237
1141,21.998733647527055
1142,21.92539005276189
1143,21.904494537411457
1144,22.05680519418931
2426,0.0
2468,0.0
2474,0.0
2480,0.0
2486,0.0
2732,0.0
2759,0.0
2,3, 7,25, 1,21, 0.00,60.00,Tuesday
1140,22.491447574986478
1141,22.769620745352979
1142,22.724655060001945
1143,22.57597298855329
1144,22.869886733516688
2426,0.0
2468,0.0
2474,0.0
2480,0.0
2486,0.0
2732,0.0
2759,0.0
2,3, 7,25, 1,22, 0.00,60.00,Tuesday
1140,22.915436964328117
1141,23.23117369551147
1142,23.08023237211654
1143,23.019740677589444
1144,23.358359359717324
2426,0.0
2468,0.0
2474,0.0
2480,0.0
2486,0.0
2732,0.0
2759,0.0
2,3, 7,25, 1,23, 0.00,60.00,Tuesday
1140,22.953024654660479
1141,23.293766255574693
1142,23.164446180650097
1143,23.05945558765122
1144,23.42554037584179
2426,0.0
2468,0.0
2474,0.0
2480,0.0
2486,0.0
2732,0.0
2759,0.0
2,3, 7,25, 1,24, 0.00,60.00,Tuesday
1140,22.996285626569287
1141,23.33934158273789
1142,23.207112691957588
1143,23.101022236660037
1144,23.47124786660174
2426,0.0
2468,0.0
2474,0.0
2480,0.0
2486,0.0
2732,0.0
2759,0.0
2,4, 7,26, 1, 1, 0.00,60.00,Wednesday
1140,23.016164504277545
1141,23.36711011275877
1142,23.233951895452713
1143,23.126405136736986
1144,23.505098981530037
2426,0.0
2468,0.0
2474,0.0
2480,0.0
2486,0.0
2732,0.0
2759,0.0
2,4, 7,26, 1, 2, 0.00,60.00,Wednesday
1140,22.915788503935727
1141,23.32171497157734
1142,23.239682632364969
1143,23.033803431276835
1144,23.467316782192275
2426,0.0
2468,0.0
2474,0.0
2480,0.0
2486,0.0
2732,0.0
2759,0.0
2,4, 7,26, 1, 3, 0.00,60.00,Wednesday
1140,22.791574463899527
1141,23.25403483883755
1142,23.215945524396657
1143,22.91024417820915
1144,23.401451120590587
2426,0.0
2468,0.0
2474,0.0
2480,0.0
2486,0.0
2732,0.0
2759,0.0
2,4, 7,26, 1, 4, 0.00,60.00,Wednesday
1140,22.74599078939979
1141,23.22696331790586
1142,23.18830454443788
1143,22.865599891627477
1144,23.376267194644549
2426,0.0
2468,0.0
2474,0.0
2480,0.0
2486,0.0
2732,0.0
2759,0.0
2,4, 7,26, 1, 5, 0.00,60.00,Wednesday
1140,22.682464869369587
1141,23.178165038016365
1142,23.149345862919807
1143,22.802757980824123
1144,23.33215876401442
2426,0.0
2468,0.0
2474,0.0
2480,0.0
2486,0.0
2732,0.0
2759,0.0
2,4, 7,26, 1, 6, 0.00,60.00,Wednesday
1140,22.69058871346451
1141,23.168312394009886
1142,23.13177620568262
1143,22.81983693110136
1144,23.32252457877302
2426,0.0
2468,0.0
2474,0.0
2480,0.0
2486,0.0
2732,0.0
2759,0.0
2,4, 7,26, 1, 7, 0.00,60.00,Wednesday
1140,21.677760068265333
1141,21.976527356985949
1142,22.13482926934168
1143,21.815948082936076
1144,22.12256187473212
2426,0.0
2468,5.0
2474,5.0
2480,0.0
2486,10.0
2732,0.0
2759,0.0
2,4, 7,26, 1, 8, 0.00,60.00,Wednesday
1140,22.133066959359824
1141,22.315719515087257
1142,21.991024219187105
1143,22.250545155665799
1144,22.434643249686216
2426,0.0
2468,0.0
2474,0.0
2480,0.0
2486,0.0
2732,0.0
2759,0.0
2,4, 7,26, 1, 9, 0.00,60.00,Wednesday
1140,22.716684712216435
1141,22.81300999430861
1142,22.14469625006752
1143,22.758141377561939
1144,22.851396506523544
2426,0.0
2468,0.0
2474,0.0
2480,0.0
2486,0.0
2732,0.0
2759,0.0
2,4, 7,26, 1,10, 0.00,60.00,Wednesday
1140,23.08761842460648
1141,23.098625378131865
1142,22.32302490891533
1143,23.07578975089673
1144,23.083767371939638
2426,85.0
2468,95.0
2474,0.0
2480,85.0
2486,95.0
2732,0.0
2759,0.0
2,4, 7,26, 1,11, 0.00,60.00,Wednesday
1140,23.038223049730715
1141,23.0485957990282
1142,22.37806336782054
1143,23.01867839512344
1144,23.031911289732017
2426,75.0
2468,80.0
2474,0.0
2480,65.0
2486,75.0
2732,0.0
2759,0.0
2,4, 7,26, 1,12, 0.00,60.00,Wednesday
1140,22.87426105549966
1141,22.937392799107795
1142,22.378836823088169
1143,22.885410948824949
1144,22.939055865326517
2426,0.0
2468,0.0
2474,0.0
2480,0.0
2486,0.0
2732,0.0
2759,0.0
2,4, 7,26, 1,13, 0.00,60.00,Wednesday
1140,23.030483774653903
1141,23.059111002013588
1142,22.428679272561618
1143,23.01084270216227
1144,23.026417312487984
2426,55.0
2468,80.0
2474,0.0
2480,50.0
2486,70.0
2732,0.0
2759,0.0
2,4, 7,26, 1,14, 0.00,60.00,Wednesday
1140,23.250086980402107
1141,23.15636340451774
1142,22.519704911678966
1143,23.154602268640106
1144,23.05943626639663
2426,100.0
2468,100.0
2474,0.0
2480,100.0
2486,100.0
2732,0.0
2759,0.0
2,4, 7,26, 1,15, 0.00,60.00,Wednesday
1140,23.36958552086769
1141,23.116181527870219
1142,22.6023413684242
1143,23.25673604356841
1144,23.004370063796025
2426,100.0
2468,100.0
2474,0.0
2480,100.0
2486,60.0
2732,0.0
2759,0.0
2,4, 7,26, 1,16, 0.00,60.00,Wednesday
1140,23.411661303312568
1141,22.997045074860226
1142,22.641273047116287
1143,23.321450228402577
1144,22.976025481484578
2426,100.0
2468,55.0
2474,0.0
2480,100.0
2486,0.0
2732,0.0
2759,0.0
2,4, 7,26, 1,17, 0.00,60.00,Wednesday
1140,23.109458043565167
1141,22.608151801144645
1142,22.574656174149998
1143,23.076909824057688
1144,22.711169669406499
2426,85.0
2468,0.0
2474,0.0
2480,80.0
2486,0.0
2732,0.0
2759,0.0
2,4, 7,26, 1,18, 0.00,60.00,Wednesday
1140,22.964475751367265
1141,22.350179937786458
1142,22.47514490877319
1143,22.995850160620586
1144,22.533574487210414
2426,0.0
2468,0.0
2474,0.0
2480,55.0
2486,0.0
2732,0.0
2759,0.0
2,4, 7,26, 1,19, 0.00,60.00,Wednesday
1140,22.64883571913072
1141,22.183496922123564
1142,22.336953223011258
1143,22.653851503825004
1144,22.42158685419939
2426,0.0
2468,0.0
2474,0.0
2480,0.0
2486,0.0
2732,0.0
2759,0.0
2,4, 7,26, 1,20, 0.00,60.00,Wednesday
1140,22.129273225075957
1141,21.954747315023427
1142,22.107610155060479
1143,22.156224754001678
1144,22.225715205897808
2426,0.0
2468,0.0
2474,0.0
2480,0.0
2486,0.0
2732,0.0
2759,0.0
2,4, 7,26, 1,21, 0.00,60.00,Wednesday
1140,22.562758173949754
1141,22.668590289416025
1142,22.849843827950914
1143,22.583147837672617
1144,23.00072830568278
2426,0.0
2468,0.0
2474,0.0
2480,0.0
2486,0.0
2732,0.0
2759,0.0
2,4, 7,26, 1,22, 0.00,60.00,Wednesday
1140,22.67533246559052
1141,22.968014441251026
1142,23.11804762824415
1143,22.695842321005949
1144,23.33078529669169
2426,0.0
2468,0.0
2474,0.0
2480,0.0
2486,0.0
2732,0.0
2759,0.0
2,4, 7,26, 1,23, 0.00,60.00,Wednesday
1140,22.64544456490485
1141,22.993432367672125
1142,23.146471703970769
1143,22.666155703905074
1144,23.35936118411635
2426,0.0
2468,0.0
2474,0.0
2480,0.0
2486,0.0
2732,0.0
2759,0.0
2,4, 7,26, 1,24, 0.00,60.00,Wednesday
1140,22.60912176182014
1141,22.993249237167239
1142,23.14894958850895
1143,22.63126852874616
1144,23.36095255425166
2426,0.0
2468,0.0
2474,0.0
2480,0.0
2486,0.0
2732,0.0
2759,0.0
2,5, 7,27, 1, 1, 0.00,60.00,Thursday
1140,22.592407588557795
1141,22.998658275483057
1142,23.145209007074607
1143,22.619268684529517
1144,23.368694786401357
2426,0.0
2468,0.0
2474,0.0
2480,0.0
2486,0.0
2732,0.0
2759,0.0
2,5, 7,27, 1, 2, 0.00,60.00,Thursday
1140,22.5778480309931
1141,23.007032023686443
1142,23.14545889480898
1143,22.6121328279036
1144,23.380244308969098
2426,0.0
2468,0.0
2474,0.0
2480,0.0
2486,0.0
2732,0.0
2759,0.0
2,5, 7,27, 1, 3, 0.00,60.00,Thursday
1140,22.56891326342308
1141,23.017388994184917
1142,23.145983111882957
1143,22.60724184157813
1144,23.390198236881014
2426,0.0
2468,0.0
2474,0.0
2480,0.0
2486,0.0
2732,0.0
2759,0.0
2,5, 7,27, 1, 4, 0.00,60.00,Thursday
1140,22.539147648395756
1141,23.012936940688279
1142,23.142047477417838
1143,22.58213685455395
1144,23.385622344528256
2426,0.0
2468,0.0
2474,0.0
2480,0.0
2486,0.0
2732,0.0
2759,0.0
2,5, 7,27, 1, 5, 0.00,60.00,Thursday
1140,22.44008013874897
1141,22.961753937940747
1142,23.116662242453335
1143,22.487861299025288
1144,23.337074130858939
2426,0.0
2468,0.0
2474,0.0
2480,0.0
2486,0.0
2732,0.0
2759,0.0
2,5, 7,27, 1, 6, 0.00,60.00,Thursday
1140,22.406706422297927
1141,22.9334129131448
1142,23.09328121793205
1143,22.46422227939916
1144,23.30627408765006
2426,0.0
2468,0.0
2474,0.0
2480,0.0
2486,0.0
2732,0.0
2759,0.0
2,5, 7,27, 1, 7, 0.00,60.00,Thursday
1140,21.540008148508816
1141,21.91570975494232
1142,22.216772440492727
1143,21.621915605375127
1144,22.247263718643617
2426,0.0
2468,0.0
2474,3.333333333333333
2480,0.0
2486,4.999999999999999
2732,0.0
2759,0.0
2,5, 7,27, 1, 8, 0.00,60.00,Thursday
1140,21.915023465711895
1141,22.18790426927606
1142,22.050667421866856
1143,21.985973949789455
1144,22.475823557739728
2426,0.0
2468,0.0
2474,0.0
2480,0.0
2486,0.0
2732,0.0
2759,0.0
2,5, 7,27, 1, 9, 0.00,60.00,Thursday
1140,22.471584142575137
1141,22.6717949521618
1142,22.178215900578054
1143,22.468491026951609
1144,22.862634368680923
2426,0.0
2468,0.0
2474,0.0
2480,0.0
2486,0.0
2732,0.0
2759,0.0
2,5, 7,27, 1,10, 0.00,60.00,Thursday
1140,22.910924154533477
1141,23.003970660480698
1142,22.35615152031763
1143,22.845292438403953
1144,23.11063985886466
2426,25.0
2468,45.0
2474,0.0
2480,5.0
2486,95.0
2732,0.0
2759,0.0
2,5, 7,27, 1,11, 0.00,60.00,Thursday
1140,23.299361089329019
1141,23.280926665706823
1142,22.539810582474105
1143,23.166431567621623
1144,23.228546948802827
2426,100.0
2468,100.0
2474,0.0
2480,100.0
2486,100.0
2732,0.0
2759,0.0
2,5, 7,27, 1,12, 0.00,60.00,Thursday
1140,23.461394594239367
1141,23.43903952696408
1142,22.6938537995971
1143,23.237849853181566
1144,23.252450143777247
2426,100.0
2468,100.0
2474,0.0
2480,100.0
2486,100.0
2732,0.0
2759,0.0
2,5, 7,27, 1,13, 0.00,60.00,Thursday
1140,23.496370080805258
1141,23.489065302004737
1142,22.774237933713775
1143,23.192551636697496
1144,23.197138340101156
2426,100.0
2468,100.0
2474,0.0
2480,100.0
2486,100.0
2732,0.0
2759,0.0
2,5, 7,27, 1,14, 0.00,60.00,Thursday
1140,23.474283951597898
1141,23.42826923490677
1142,22.812780360983547
1143,23.161919790543135
1144,23.117296291382286
2426,100.0
2468,100.0
2474,0.0
2480,100.0
2486,100.0
2732,0.0
2759,0.0
2,5, 7,27, 1,15, 0.00,60.00,Thursday
1140,23.654331736970357
1141,23.324284414647626
1142,22.880533693655115
1143,23.385010412180855
1144,23.046690180212307
2426,100.0
2468,100.0
2474,0.0
2480,100.0
2486,100.0
2732,0.0
2759,0.0
2,5, 7,27, 1,16, 0.00,60.00,Thursday
1140,23.87198152496
1141,23.184393253268614
1142,22.93935633524513
1143,23.650959244323454
1144,22.960057600281407
2426,100.0
2468,100.0
2474,0.0
2480,100.0
2486,10.0
2732,0.0
2759,0.0
2,5, 7,27, 1,17, 0.00,60.00,Thursday
1140,23.511310490952618
1141,22.702878121589703
1142,22.848659336482755
1143,23.381190348081579
1144,22.658590728666014
2426,100.0
2468,10.0
2474,0.0
2480,100.0
2486,0.0
2732,0.0
2759,0.0
2,5, 7,27, 1,18, 0.00,60.00,Thursday
1140,22.946361423995346
1141,22.36798800294223
1142,22.66635296491305
1143,22.915286397417125
1144,22.451773948283216
2426,45.0
2468,0.0
2474,0.0
2480,40.0
2486,0.0
2732,0.0
2759,0.0
2,5, 7,27, 1,19, 0.00,60.00,Thursday
1140,22.397634623534104
1141,22.126287090190613
1142,22.449120737054455
1143,22.437008179509936
1144,22.277448706324333
2426,0.0
2468,0.0
2474,0.0
2480,0.0
2486,0.0
2732,0.0
2759,0.0
2,5, 7,27, 1,20, 0.00,60.00,Thursday
1140,21.86705713314345
1141,21.86801350961234
1142,22.202834310345258
1143,21.953759049109804
1144,22.058987238895953
2426,0.0
2468,0.0
2474,0.0
2480,0.0
2486,0.0
2732,0.0
2759,0.0
2,5, 7,27, 1,21, 0.00,60.00,Thursday
1140,22.17403281524057
1141,22.48419944158521
1142,22.905435219376863
1143,22.290709335295067
1144,22.739146333348299
2426,0.0
2468,0.0
2474,0.0
2480,0.0
2486,0.0
2732,0.0
2759,0.0
2,5, 7,27, 1,22, 0.00,60.00,Thursday
1140,22.23533225038701
1141,22.745312326935154
1142,23.118496847140116
1143,22.377429530708477
1144,23.032444422106026
2426,0.0
2468,0.0
2474,0.0
2480,0.0
2486,0.0
2732,0.0
2759,0.0
2,5, 7,27, 1,23, 0.00,60.00,Thursday
1140,22.17797348105757
1141,22.745215482675414
1142,23.119690232339033
1143,22.322413670693618
1144,23.038381580675599
2426,0.0
2468,0.0
2474,0.0
2480,0.0
2486,0.0
2732,0.0
2759,0.0
2,5, 7,27, 1,24, 0.00,60.00,Thursday
1140,22.13401714117631
1141,22.733383069521588
1142,23.101356544456555
1143,22.278135452527598
1144,23.031834123154885
2426,0.0
2468,0.0
2474,0.0
2480,0.0
2486,0.0
2732,0.0
2759,0.0
2,6, 7,28, 1, 1, 0.00,60.00,Friday
1140,22.091626299750318
1141,22.717026382495559
1142,23.074739917392
1143,22.236885337634069
1144,23.019041124150808
2426,0.0
2468,0.0
2474,0.0
2480,0.0
2486,0.0
2732,0.0
2759,0.0
2,6, 7,28, 1, 2, 0.00,60.00,Friday
1140,22.06169193555685
1141,22.70658399229154
1142,23.048953002778739
1143,22.210344837685989
1144,23.01236423803973
2426,0.0
2468,0.0
2474,0.0
2480,0.0
2486,0.0
2732,0.0
2759,0.0
2,6, 7,28, 1, 3, 0.00,60.00,Friday
1140,22.020159835204465
1141,22.688536574594658
1142,23.021869798850145
1143,22.17732444244963
1144,23.001059962706355
2426,0.0
2468,0.0
2474,0.0
2480,0.0
2486,0.0
2732,0.0
2759,0.0
2,6, 7,28, 1, 4, 0.00,60.00,Friday
1140,22.011662117132997
1141,22.692027574289186
1142,23.00375749562376
1143,22.170324402080646
1144,23.003941487044139
2426,0.0
2468,0.0
2474,0.0
2480,0.0
2486,0.0
2732,0.0
2759,0.0
2,6, 7,28, 1, 5, 0.00,60.00,Friday
1140,22.010779831802556
1141,22.70328401084312
1142,22.99400081019023
1143,22.171476747593827
1144,23.015174846659798
2426,0.0
2468,0.0
2474,0.0
2480,0.0
2486,0.0
2732,0.0
2759,0.0
2,6, 7,28, 1, 6, 0.00,60.00,Friday
1140,22.036972494238289
1141,22.71693458563887
1142,22.99501109901572
1143,22.205681524047554
1144,23.023700061929174
2426,0.0
2468,0.0
2474,0.0
2480,0.0
2486,0.0
2732,0.0
2759,0.0
2,6, 7,28, 1, 7, 0.00,60.00,Friday
1140,21.171573347739959
1141,21.662542274987908
1142,22.09454168590321
1143,21.35731267658987
1144,21.939897146130268
2426,0.0
2468,0.0
2474,1.6666666666666666
2480,0.0
2486,3.333333333333333
2732,0.0
2759,0.0
2,6, 7,28, 1, 8, 0.00,60.00,Friday
1140,21.64505644459256
1141,22.040723429582486
1142,21.986222273385704
1143,21.815117694341219
1144,22.29982647045997
2426,0.0
2468,0.0
2474,0.0
2480,0.0
2486,0.0
2732,0.0
2759,0.0
2,6, 7,28, 1, 9, 0.00,60.00,Friday
1140,22.14338400653982
1141,22.478629054905587
1142,22.108543106954323
1143,22.24496199078113
1144,22.67448715323055
2426,0.0
2468,0.0
2474,0.0
2480,0.0