Program Version,EnergyPlus, Version 9.3.0-baff08990c, YMD=2021.06.28 21:25
1,5,Environment Title[],Latitude[deg],Longitude[deg],Time Zone[],Elevation[m]
2,8,Day of Simulation[],Month[],Day of Month[],DST Indicator[1=yes 0=no],Hour[],StartMinute[],EndMinute[],DayType
3,5,Cumulative Day of Simulation[],Month[],Day of Month[],DST Indicator[1=yes 0=no],DayType  ! When Daily Meters Requested
4,2,Cumulative Days of Simulation[],Month[]  ! When Monthly Meters Requested
5,1,Cumulative Days of Simulation[] ! When Run Period Meters Requested
6,1,Calendar Year of Simulation[] ! When Annual Meters Requested
59,1,Electricity:Facility [J] !Hourly
1732,1,ElectricityNet:Facility [J] !Hourly
95,1,InteriorLights:Electricity [J] !Hourly
512,1,InteriorEquipment:Electricity [J] !Hourly
End of Data Dictionary
1,ATLANTA-HARTSFIELD.JACKSON.INTL.AP_GA_USA ANN HTG 99.6% CONDNS DB,  41.98, -87.92,  -6.00, 201.00
2,1, 1,21, 0, 1, 0.00,60.00,WinterDesignDay
59,29851803.108976693
95,0.0
512,0.0
1732,29851803.108976693
2,1, 1,21, 0, 2, 0.00,60.00,WinterDesignDay
59,29905803.108976693
95,0.0
512,0.0
1732,29905803.108976693
2,1, 1,21, 0, 3, 0.00,60.00,WinterDesignDay
59,29905803.108976693
95,0.0
512,0.0
1732,29905803.108976693
2,1, 1,21, 0, 4, 0.00,60.00,WinterDesignDay
59,29851803.108976693
95,0.0
512,0.0
1732,29851803.108976693
2,1, 1,21, 0, 5, 0.00,60.00,WinterDesignDay
59,29863803.108976693
95,0.0
512,0.0
1732,29863803.108976693
2,1, 1,21, 0, 6, 0.00,60.00,WinterDesignDay
59,29863803.108976693
95,0.0
512,0.0
1732,29863803.108976693
2,1, 1,21, 0, 7, 0.00,60.00,WinterDesignDay
59,39588063.10897668
95,0.0
512,0.0
1732,39588063.10897668
2,1, 1,21, 0, 8, 0.00,60.00,WinterDesignDay
59,27126273.108976686
95,0.0
512,0.0
1732,27126273.108976686
2,1, 1,21, 0, 9, 0.00,60.00,WinterDesignDay
59,21186663.108976716
95,0.0
512,0.0
1732,21186663.108976716
2,1, 1,21, 0,10, 0.00,60.00,WinterDesignDay
59,21204663.108976716
95,0.0
512,0.0
1732,21204663.108976716
2,1, 1,21, 0,11, 0.00,60.00,WinterDesignDay
59,21132663.108976716
95,0.0
512,0.0
1732,21132663.108976716
2,1, 1,21, 0,12, 0.00,60.00,WinterDesignDay
59,21144663.108976716
95,0.0
512,0.0
1732,21144663.108976716
2,1, 1,21, 0,13, 0.00,60.00,WinterDesignDay
59,21246663.108976716
95,0.0
512,0.0
1732,21246663.108976716
2,1, 1,21, 0,14, 0.00,60.00,WinterDesignDay
59,21252663.108976716
95,0.0
512,0.0
1732,21252663.108976716
2,1, 1,21, 0,15, 0.00,60.00,WinterDesignDay
59,21138663.108976716
95,0.0
512,0.0
1732,21138663.108976716
2,1, 1,21, 0,16, 0.00,60.00,WinterDesignDay
59,21222663.108976716
95,0.0
512,0.0
1732,21222663.108976716
2,1, 1,21, 0,17, 0.00,60.00,WinterDesignDay
59,25603323.108976716
95,0.0
512,0.0
1732,25603323.108976716
2,1, 1,21, 0,18, 0.00,60.00,WinterDesignDay
59,40038063.10897668
95,0.0
512,0.0
1732,40038063.10897668
2,1, 1,21, 0,19, 0.00,60.00,WinterDesignDay
59,40746063.10897668
95,0.0
512,0.0
1732,40746063.10897668
2,1, 1,21, 0,20, 0.00,60.00,WinterDesignDay
59,32379183.10897669
95,0.0
512,0.0
1732,32379183.10897669
2,1, 1,21, 0,21, 0.00,60.00,WinterDesignDay
59,32379183.10897669
95,0.0
512,0.0
1732,32379183.10897669
2,1, 1,21, 0,22, 0.00,60.00,WinterDesignDay
59,32373183.10897669
95,0.0
512,0.0
1732,32373183.10897669
2,1, 1,21, 0,23, 0.00,60.00,WinterDesignDay
59,32409183.10897669
95,0.0
512,0.0
1732,32409183.10897669
2,1, 1,21, 0,24, 0.00,60.00,WinterDesignDay
59,32403183.10897669
95,0.0
512,0.0
1732,32403183.10897669
1,ATLANTA-HARTSFIELD.JACKSON.INTL.AP_GA_USA ANN CLG .4% CONDNS DB=>MWB,  41.98, -87.92,  -6.00, 201.00
2,1, 7,21, 0, 1, 0.00,60.00,SummerDesignDay
59,420344752.7829481
95,152517470.7542746
512,224813060.55296675
1732,420344752.782948
2,1, 7,21, 0, 2, 0.00,60.00,SummerDesignDay
59,420434752.7829481
95,152517470.7542746
512,224813060.55296675
1732,420434752.782948
2,1, 7,21, 0, 3, 0.00,60.00,SummerDesignDay
59,420434752.7829481
95,152517470.7542746
512,224813060.55296675
1732,420434752.7829481
2,1, 7,21, 0, 4, 0.00,60.00,SummerDesignDay
59,420434752.7829481
95,152517470.7542746
512,224813060.55296675
1732,420434752.782948
2,1, 7,21, 0, 5, 0.00,60.00,SummerDesignDay
59,416718959.9645741
95,151903095.9359005
512,224813060.55296675
1732,416718959.96457406
2,1, 7,21, 0, 6, 0.00,60.00,SummerDesignDay
59,389430254.184567
95,128071818.04907707
512,224813060.55296675
1732,389430254.184567
2,1, 7,21, 0, 7, 0.00,60.00,SummerDesignDay
59,383975077.99740049
95,120497854.10498229
512,224813060.55296675
1732,383975077.99740049
2,1, 7,21, 0, 8, 0.00,60.00,SummerDesignDay
59,387001343.1277929
95,119991185.40467149
512,224813060.55296675
1732,387001343.12779298
2,1, 7,21, 0, 9, 0.00,60.00,SummerDesignDay
59,386935312.7452324
95,119991185.40467149
512,224813060.55296675
1732,386935312.7452324
2,1, 7,21, 0,10, 0.00,60.00,SummerDesignDay
59,387380499.19866439
95,119991185.40467149
512,224813060.55296675
1732,387380499.19866439
2,1, 7,21, 0,11, 0.00,60.00,SummerDesignDay
59,387634093.10030218
95,119991185.40467149
512,224813060.55296675
1732,387634093.10030218
2,1, 7,21, 0,12, 0.00,60.00,SummerDesignDay
59,387469558.5009769
95,119991185.40467149
512,224813060.55296675
1732,387469558.5009769
2,1, 7,21, 0,13, 0.00,60.00,SummerDesignDay
59,387697496.7660376
95,119991185.40467149
512,224813060.55296675
1732,387697496.7660376
2,1, 7,21, 0,14, 0.00,60.00,SummerDesignDay
59,388467870.84363618
95,119991185.40467149
512,224813060.55296675
1732,388467870.84363618
2,1, 7,21, 0,15, 0.00,60.00,SummerDesignDay
59,388863708.3897724
95,119991185.40467149
512,224813060.55296675
1732,388863708.3897724
2,1, 7,21, 0,16, 0.00,60.00,SummerDesignDay
59,388565175.2769388
95,119991185.40467149
512,224813060.55296675
1732,388565175.27693876
2,1, 7,21, 0,17, 0.00,60.00,SummerDesignDay
59,387692691.47425779
95,119991185.40467149
512,224813060.55296675
1732,387692691.47425779
2,1, 7,21, 0,18, 0.00,60.00,SummerDesignDay
59,387255442.7529849
95,120633945.22274417
512,224813060.55296675
1732,387255442.7529849
2,1, 7,21, 0,19, 0.00,60.00,SummerDesignDay
59,395882846.5998068
95,130861359.31742129
512,224813060.55296675
1732,395882846.5998068
2,1, 7,21, 0,20, 0.00,60.00,SummerDesignDay
59,424260763.28949388
95,152399856.5668155
512,224813060.55296675
1732,424260763.28949388
2,1, 7,21, 0,21, 0.00,60.00,SummerDesignDay
59,427391338.29649636
95,152517470.7542746
512,224813060.55296675
1732,427391338.29649636
2,1, 7,21, 0,22, 0.00,60.00,SummerDesignDay
59,427443773.56619039
95,152517470.7542746
512,224813060.55296675
1732,427443773.56619027
2,1, 7,21, 0,23, 0.00,60.00,SummerDesignDay
59,423886132.7829481
95,152517470.7542746
512,224813060.55296675
1732,423886132.782948
2,1, 7,21, 0,24, 0.00,60.00,SummerDesignDay
59,423196132.7829481
95,152517470.7542746
512,224813060.55296675
1732,423196132.782948
1,RUNPERIOD 1,  41.98, -87.92,  -6.00, 201.00
2,1, 6, 1, 0, 1, 0.00,60.00,Sunday
59,53877736.10828484
95,7625873.53771374
512,33399901.50135806
1732,53877736.10828484
2,1, 6, 1, 0, 2, 0.00,60.00,Sunday
59,55622064.53597001
95,7625873.53771374
512,33399901.50135806
1732,55622064.53597001
2,1, 6, 1, 0, 3, 0.00,60.00,Sunday
59,55185982.42904872
95,7625873.53771374
512,33399901.50135806
1732,55185982.42904872
2,1, 6, 1, 0, 4, 0.00,60.00,Sunday
59,54749900.322127427
95,7625873.53771374
512,33399901.50135806
1732,54749900.322127427
2,1, 6, 1, 0, 5, 0.00,60.00,Sunday
59,50056888.17464142
95,7591463.283306486
512,33399901.50135806
1732,50056888.17464142
2,1, 6, 1, 0, 6, 0.00,60.00,Sunday
59,45959595.85650233
95,6890626.965167454
512,33399901.50135806
1732,45959595.85650233
2,1, 6, 1, 0, 7, 0.00,60.00,Sunday
59,72447322.41930713
95,5321079.202216842
512,41385398.908734139
1732,72447322.41930713
2,1, 6, 1, 0, 8, 0.00,60.00,Sunday
59,73855658.21360888
95,5177332.889597295
512,41385398.908734139
1732,73855658.21360895
2,1, 6, 1, 0, 9, 0.00,60.00,Sunday
59,74691898.87145132
95,5173573.547439724
512,41385398.908734139
1732,74691898.87145132
2,1, 6, 1, 0,10, 0.00,60.00,Sunday
59,75657898.87145132
95,5173573.547439724
512,41385398.908734139
1732,75657898.87145138
2,1, 6, 1, 0,11, 0.00,60.00,Sunday
59,76785898.87145132
95,5173573.547439724
512,41385398.908734139
1732,76785898.8714515
2,1, 6, 1, 0,12, 0.00,60.00,Sunday
59,77145898.87145132
95,5173573.547439724
512,41385398.908734139
1732,77145898.87145143
2,1, 6, 1, 0,13, 0.00,60.00,Sunday
59,76689898.87145132
95,5173573.547439724
512,41385398.908734139
1732,76689898.8714514
2,1, 6, 1, 0,14, 0.00,60.00,Sunday
59,76755898.87145132
95,5173573.547439724
512,41385398.908734139
1732,76755898.87145132
2,1, 6, 1, 0,15, 0.00,60.00,Sunday
59,76953898.87145132
95,5173573.547439724
512,41385398.908734139
1732,76953898.87145134
2,1, 6, 1, 0,16, 0.00,60.00,Sunday
59,76869898.87145132
95,5173573.547439724
512,41385398.908734139
1732,76869898.87145134
2,1, 6, 1, 0,17, 0.00,60.00,Sunday
59,77090358.29742928
95,5184032.973417598
512,41385398.908734139
1732,77090358.29742928
2,1, 6, 1, 0,18, 0.00,60.00,Sunday
59,77209950.25615894
95,5291624.93214723
512,41385398.908734139
1732,77209950.25615894
2,1, 6, 1, 0,19, 0.00,60.00,Sunday
59,68531747.14541987
95,6590919.2287842449
512,33399901.50135806
1732,68531747.14541987
2,1, 6, 1, 0,20, 0.00,60.00,Sunday
59,76115453.81087952
95,7567293.894243988
512,33399901.50135806
1732,76115453.81087952
2,1, 6, 1, 0,21, 0.00,60.00,Sunday
59,78227221.45434927
95,7625873.53771374
512,33399901.50135806
1732,78227221.45434927
2,1, 6, 1, 0,22, 0.00,60.00,Sunday
59,55114869.78752096
95,7625873.53771374
512,33399901.50135806
1732,55114869.78752096
2,1, 6, 1, 0,23, 0.00,60.00,Sunday
59,55987034.00136347
95,7625873.53771374
512,33399901.50135806
1732,55987034.00136347
2,1, 6, 1, 0,24, 0.00,60.00,Sunday
59,56423116.10828476
95,7625873.53771374
512,33399901.50135806
1732,56423116.10828476
2,2, 6, 2, 0, 1, 0.00,60.00,Monday
59,87073141.954802
95,7625873.53771374
512,44533202.00181081
1732,87073141.954802
2,2, 6, 2, 0, 2, 0.00,60.00,Monday
59,86905141.954802
95,7625873.53771374
512,44533202.00181081
1732,86905141.954802
2,2, 6, 2, 0, 3, 0.00,60.00,Monday
59,86899141.954802
95,7625873.53771374
512,44533202.00181081
1732,86899141.954802
2,2, 6, 2, 0, 4, 0.00,60.00,Monday
59,86893141.954802
95,7625873.53771374
512,44533202.00181081
1732,86893141.954802
2,2, 6, 2, 0, 5, 0.00,60.00,Monday
59,81422476.79570712
95,7391411.3786188079
512,44533202.00181081
1732,81422476.79570712
2,2, 6, 2, 0, 6, 0.00,60.00,Monday
59,83602824.16608359
95,12466695.748995169
512,44533202.00181081
1732,83602824.16608359
2,2, 6, 2, 0, 7, 0.00,60.00,Monday
59,93879593.15251132
95,10422134.858921607
512,55180531.87831209
1732,93879593.15251132
2,2, 6, 2, 0, 8, 0.00,60.00,Monday
59,160098344.5963616
95,31041441.28463835
512,95796493.41677362
1732,160098344.59636159
2,2, 6, 2, 0, 9, 0.00,60.00,Monday
59,332956863.04708579
95,93124323.85391505
512,204227663.7591696
1732,332956863.04708579
2,2, 6, 2, 0,10, 0.00,60.00,Monday
59,302919708.8507969
95,93124323.85391505
512,174055806.61631225
1732,302919708.8507968
2,2, 6, 2, 0,11, 0.00,60.00,Monday
59,296354123.52248159
95,93124323.85391505
512,167093070.3525762
1732,296354123.52248159
2,2, 6, 2, 0,12, 0.00,60.00,Monday
59,303800042.9815319
95,93124323.85391505
512,174055806.61631225
1732,303800042.9815319
2,2, 6, 2, 0,13, 0.00,60.00,Monday
59,307723857.87107738
95,93124323.85391505
512,177667514.30607493
1732,307723857.87107738
2,2, 6, 2, 0,14, 0.00,60.00,Monday
59,310173134.740197
95,93124323.85391505
512,179858086.83609239
1732,310173134.740197
2,2, 6, 2, 0,15, 0.00,60.00,Monday
59,297129706.2592273
95,93124323.85391505
512,167093070.3525762
1732,297129706.2592272
2,2, 6, 2, 0,16, 0.00,60.00,Monday
59,296911706.86285689
95,93133991.36789204
512,167093070.3525762
1732,296911706.8628568
2,2, 6, 2, 0,17, 0.00,60.00,Monday
59,308200093.8342452
95,93559746.61659938
512,177537174.74818046
1732,308200093.8342452
2,2, 6, 2, 0,18, 0.00,60.00,Monday
59,228143761.89775459
95,52740507.402017209
512,140923939.57316477
1732,228143761.89775456
2,2, 6, 2, 0,19, 0.00,60.00,Monday
59,135451111.50038255
95,34330025.61889131
512,69106004.40578471
1732,135451111.50038255
2,2, 6, 2, 0,20, 0.00,60.00,Monday
59,138752359.95576046
95,39225532.42591783
512,59822356.054136309
1732,138752359.95576046
2,2, 6, 2, 0,21, 0.00,60.00,Monday
59,128589901.4255753
95,26303943.895732464
512,59822356.054136309
1732,128589901.42557532
2,2, 6, 2, 0,22, 0.00,60.00,Monday
59,119525922.1893221
95,26303943.895732464
512,55180531.87831209
1732,119525922.1893221
2,2, 6, 2, 0,23, 0.00,60.00,Monday
59,106667950.24145606
95,13151971.947866232
512,55180531.87831209
1732,106667950.24145606
2,2, 6, 2, 0,24, 0.00,60.00,Monday
59,100037964.26752292
95,6575985.973933116
512,55180531.87831209
1732,100037964.26752292
End of Data
 Number of Records Written=         384
