Program Version,EnergyPlus, Version 9.5.0-de239b2e5f, YMD=2021.08.04 18:57
1,5,Environment Title[],Latitude[deg],Longitude[deg],Time Zone[],Elevation[m]
2,8,Day of Simulation[],Month[],Day of Month[],DST Indicator[1=yes 0=no],Hour[],StartMinute[],EndMinute[],DayType
3,5,Cumulative Day of Simulation[],Month[],Day of Month[],DST Indicator[1=yes 0=no],DayType  ! When Daily Report Variables Requested
4,2,Cumulative Days of Simulation[],Month[]  ! When Monthly Report Variables Requested
5,1,Cumulative Days of Simulation[] ! When Run Period Report Variables Requested
6,1,Calendar Year of Simulation[] ! When Annual Report Variables Requested
675,1,PERIMETER_TOP_ZN_3,Zone Mean Air Temperature [C] !Hourly
1748,1,PERI3_TOP_LOTEMP,Zone Radiant HVAC Heating Rate [W] !Hourly
1753,1,PERI3_TOP_LOTEMP,Zone Radiant HVAC Pump Electricity Rate [W] !Hourly
1991,1,BOILER_RADSYS,Boiler Electricity Rate [W] !Hourly
2033,1,HOT WATER LOOP HW SUPPLY PUMP2,Pump Electricity Rate [W] !Hourly
End of Data Dictionary
1,RUNPERIOD 1,  40.78, -73.97,  -5.00,  40.00
2,1, 1,21, 0, 1, 0.00,60.00,Holiday
675,20.76608031756038
1748,7023.866743881095
1753,60.0
1991,8765.883306275598
2033,54.992337948717949
2,1, 1,21, 0, 2, 0.00,60.00,Holiday
675,20.928163998131994
1748,6665.082403626207
1753,60.0
1991,8228.650191252586
2033,54.992337948717949
2,1, 1,21, 0, 3, 0.00,60.00,Holiday
675,20.89964879443999
1748,6743.435060536603
1753,60.0
1991,8365.455250533923
2033,54.992337948717949
2,1, 1,21, 0, 4, 0.00,60.00,Holiday
675,20.89174728760005
1748,6779.087742008385
1753,60.0
1991,8349.757054572761
2033,54.992337948717949
2,1, 1,21, 0, 5, 0.00,60.00,Holiday
675,20.90078351891747
1748,6770.212413346235
1753,60.0
1991,8359.37591943146
2033,54.992337948717949
2,1, 1,21, 0, 6, 0.00,60.00,Holiday
675,20.92386220181769
1748,6736.754373513696
1753,60.0
1991,8300.99940120466
2033,54.992337948717949
2,1, 1,21, 0, 7, 0.00,60.00,Holiday
675,20.94658733426584
1748,6687.916080951373
1753,60.0
1991,8212.38841548101
2033,54.992337948717949
2,1, 1,21, 0, 8, 0.00,60.00,Holiday
675,20.902638857892368
1748,6784.544224417751
1753,60.0
1991,8375.537061651137
2033,54.992337948717949
2,1, 1,21, 0, 9, 0.00,60.00,Holiday
675,21.12310167607141
1748,6332.649202597624
1753,60.0
1991,7827.023010171026
2033,54.992337948717949
2,1, 1,21, 0,10, 0.00,60.00,Holiday
675,21.52497546492568
1748,5464.909468846103
1753,60.0
1991,6696.7517822676659
2033,54.992337948717949
2,1, 1,21, 0,11, 0.00,60.00,Holiday
675,21.746846067355443
1748,4976.2063650359109
1753,60.0
1991,6069.7030142094249
2033,54.992337948717949
2,1, 1,21, 0,12, 0.00,60.00,Holiday
675,21.875114671075754
1748,4705.197683779379
1753,60.0
1991,5756.327879726935
2033,54.992337948717949
2,1, 1,21, 0,13, 0.00,60.00,Holiday
675,21.94896171504287
1748,4530.135346065636
1753,60.0
1991,5547.89570700048
2033,54.992337948717949
2,1, 1,21, 0,14, 0.00,60.00,Holiday
675,21.981411924198587
1748,2948.129481852925
1753,39.0
1991,3612.2528949782256
2033,35.745019666666667
2,1, 1,21, 0,15, 0.00,60.00,Holiday
675,21.865385572630733
1748,4559.6077490679049
1753,57.0
1991,5599.056928784129
2033,52.24272105128205
2,1, 1,21, 0,16, 0.00,60.00,Holiday
675,21.641467202014018
1748,5237.7243375086159
1753,60.0
1991,6430.816640000361
2033,54.992337948717949
2,1, 1,21, 0,17, 0.00,60.00,Holiday
675,21.676481606225474
1748,5187.3855610336
1753,60.0
1991,6379.004742936645
2033,54.992337948717949
2,1, 1,21, 0,18, 0.00,60.00,Holiday
675,21.684398816250988
1748,5162.801470247222
1753,60.0
1991,6333.430372598194
2033,54.992337948717949
2,1, 1,21, 0,19, 0.00,60.00,Holiday
675,21.459693841458287
1748,5656.936616711106
1753,60.0
1991,6951.7317551524279
2033,54.992337948717949
2,1, 1,21, 0,20, 0.00,60.00,Holiday
675,21.311259614892284
1748,5970.496077884471
1753,60.0
1991,7346.095562300097
2033,54.992337948717949
2,1, 1,21, 0,21, 0.00,60.00,Holiday
675,21.139535902767283
1748,6312.682927182383
1753,60.0
1991,7795.963079406161
2033,54.992337948717949
2,1, 1,21, 0,22, 0.00,60.00,Holiday
675,20.94752762904092
1748,6687.132930193342
1753,60.0
1991,8243.041291951968
2033,54.992337948717949
2,1, 1,21, 0,23, 0.00,60.00,Holiday
675,20.837493626640496
1748,6898.237929184112
1753,60.0
1991,8536.66180900027
2033,54.992337948717949
2,1, 1,21, 0,24, 0.00,60.00,Holiday
675,20.750487645208787
1748,7040.5243291558349
1753,60.0
1991,8687.292340816772
2033,54.992337948717949
2,2, 1,22, 0, 1, 0.00,60.00,Tuesday
675,20.611546774449054
1748,7309.925205154448
1753,60.0
1991,9067.630074511782
2033,54.992337948717949
2,2, 1,22, 0, 2, 0.00,60.00,Tuesday
675,20.44123429074418
1748,7632.475165253064
1753,60.0
1991,9448.048424743502
2033,54.992337948717949
2,2, 1,22, 0, 3, 0.00,60.00,Tuesday
675,20.40481827697947
1748,7708.148179912445
1753,60.0
1991,9537.870703328404
2033,54.992337948717949
2,2, 1,22, 0, 4, 0.00,60.00,Tuesday
675,20.52122970034066
1748,7445.685277872454
1753,60.0
1991,9229.105400699258
2033,54.992337948717949
2,2, 1,22, 0, 5, 0.00,60.00,Tuesday
675,20.50731423126532
1748,7470.141550368127
1753,60.0
1991,9231.79064331583
2033,54.992337948717949
2,2, 1,22, 0, 6, 0.00,60.00,Tuesday
675,20.294014225961204
1748,7895.781392752088
1753,60.0
1991,9772.391550988268
2033,54.992337948717949
2,2, 1,22, 0, 7, 0.00,60.00,Tuesday
675,20.93049543006886
1748,6658.388757537165
1753,60.0
1991,8260.19353763883
2033,54.992337948717949
2,2, 1,22, 0, 8, 0.00,60.00,Tuesday
675,18.90798621630254
1748,10759.299527305237
1753,60.0
1991,13275.422263501063
2033,54.992337948717949
2,2, 1,22, 0, 9, 0.00,60.00,Tuesday
675,19.230398970549126
1748,9929.287670574844
1753,60.0
1991,12363.678801040565
2033,54.992337948717949
2,2, 1,22, 0,10, 0.00,60.00,Tuesday
675,19.46515982468404
1748,9278.020886314433
1753,60.0
1991,11511.632009901492
2033,54.992337948717949
2,2, 1,22, 0,11, 0.00,60.00,Tuesday
675,19.701648208362138
1748,8677.04704246664
1753,60.0
1991,10762.497358721737
2033,54.992337948717949
2,2, 1,22, 0,12, 0.00,60.00,Tuesday
675,19.832928346522097
1748,8302.573263656386
1753,60.0
1991,10304.996092156345
2033,54.992337948717949
2,2, 1,22, 0,13, 0.00,60.00,Tuesday
675,19.73652286971092
1748,8457.70898697569
1753,60.0
1991,10514.225181564965
2033,54.992337948717949
2,2, 1,22, 0,14, 0.00,60.00,Tuesday
675,19.87446639035432
1748,8125.416057605291
1753,60.0
1991,10049.845999824462
2033,54.992337948717949
2,2, 1,22, 0,15, 0.00,60.00,Tuesday
675,19.86723783311104
1748,8116.116511749421
1753,60.0
1991,10047.414184810474
2033,54.992337948717949
2,2, 1,22, 0,16, 0.00,60.00,Tuesday
675,19.75619001170896
1748,8341.877672214614
1753,60.0
1991,10342.992549575723
2033,54.992337948717949
2,2, 1,22, 0,17, 0.00,60.00,Tuesday
675,19.69073471215078
1748,8509.05949316408
1753,60.0
1991,10565.86843393749
2033,54.992337948717949
2,2, 1,22, 0,18, 0.00,60.00,Tuesday
675,19.251811480106558
1748,9442.4174619321
1753,60.0
1991,11684.013205142752
2033,54.992337948717949
2,2, 1,22, 0,19, 0.00,60.00,Tuesday
675,18.930276095471677
1748,10166.86970572471
1753,60.0
1991,12608.116142508085
2033,54.992337948717949
2,2, 1,22, 0,20, 0.00,60.00,Tuesday
675,18.827249724264847
1748,10391.104517873568
1753,60.0
1991,12893.646067435355
2033,54.992337948717949
2,2, 1,22, 0,21, 0.00,60.00,Tuesday
675,18.642776638225379
1748,10780.517846627754
1753,60.0
1991,13375.702322471037
2033,54.992337948717949
2,2, 1,22, 0,22, 0.00,60.00,Tuesday
675,20.650034723018356
1748,6714.828118534397
1753,60.0
1991,8393.042603464895
2033,54.992337948717949
2,2, 1,22, 0,23, 0.00,60.00,Tuesday
675,19.419602311811894
1748,9385.49789414616
1753,60.0
1991,11566.625474262435
2033,54.992337948717949
2,2, 1,22, 0,24, 0.00,60.00,Tuesday
675,19.141914482210873
1748,10016.458050715297
1753,60.0
1991,12422.645149626578
2033,54.992337948717949
End of Data
 Number of Records Written=         240
