Program Version,EnergyPlus, Version 9.3.0-622089b575, YMD=2021.12.09 05:30
1,5,Environment Title[],Latitude[deg],Longitude[deg],Time Zone[],Elevation[m]
2,8,Day of Simulation[],Month[],Day of Month[],DST Indicator[1=yes 0=no],Hour[],StartMinute[],EndMinute[],DayType
3,5,Cumulative Day of Simulation[],Month[],Day of Month[],DST Indicator[1=yes 0=no],DayType  ! When Daily Report Variables Requested
4,2,Cumulative Days of Simulation[],Month[]  ! When Monthly Report Variables Requested
5,1,Cumulative Days of Simulation[] ! When Run Period Report Variables Requested
6,1,Calendar Year of Simulation[] ! When Annual Report Variables Requested
1140,1,CORNER_CLASS_1_POD_1_ZN_1_FLR_1,Zone Mean Air Temperature [C] !Hourly
1141,1,MULT_CLASS_1_POD_1_ZN_1_FLR_1,Zone Mean Air Temperature [C] !Hourly
1142,1,CORRIDOR_POD_1_ZN_1_FLR_1,Zone Mean Air Temperature [C] !Hourly
1143,1,CORNER_CLASS_2_POD_1_ZN_1_FLR_1,Zone Mean Air Temperature [C] !Hourly
1144,1,MULT_CLASS_2_POD_1_ZN_1_FLR_1,Zone Mean Air Temperature [C] !Hourly
2426,1,CORNER_CLASS_1_POD_1_ZN_1_FLR_1_LOTEMP,Zone Radiant HVAC Pump Electric Power [W] !Hourly
2468,1,MULT_CLASS_1_POD_1_ZN_1_FLR_1_LOTEMP,Zone Radiant HVAC Pump Electric Power [W] !Hourly
2474,1,CORRIDOR_POD_1_ZN_1_FLR_1_LOTEMP,Zone Radiant HVAC Pump Electric Power [W] !Hourly
2480,1,CORNER_CLASS_2_POD_1_ZN_1_FLR_1_LOTEMP,Zone Radiant HVAC Pump Electric Power [W] !Hourly
2486,1,MULT_CLASS_2_POD_1_ZN_1_FLR_1_LOTEMP,Zone Radiant HVAC Pump Electric Power [W] !Hourly
2656,1,COOLSYS1 CHILLER1,Chiller Electric Power [W] !Hourly
2758,1,CHILLED WATER LOOP CHW SUPPLY PUMP2,Pump Electric Energy [J] !Hourly
End of Data Dictionary
1,RUNPERIOD 1,  40.78, -73.97,  -5.00,  40.00
2,1, 6,30, 1, 1, 0.00,60.00,Sunday
1140,21.91902586413622
1141,22.275708349794998
1142,22.164553588349596
1143,21.971987107250049
1144,22.490493455797517
2426,0.0
2468,100.0
2474,100.0
2480,0.0
2486,100.0
2656,6925.96574339019
2758,5129123.417694847
2,1, 6,30, 1, 2, 0.00,60.00,Sunday
1140,21.921127910371234
1141,22.205951274411928
1142,22.084458567748365
1143,21.968796900596386
1144,22.412665421380536
2426,0.0
2468,100.0
2474,100.0
2480,0.0
2486,100.0
2656,6938.544900115802
2758,5129123.417694847
2,1, 6,30, 1, 3, 0.00,60.00,Sunday
1140,21.902676055457915
1141,22.105159074057587
1142,21.99710349445212
1143,21.950521475093138
1144,22.303092361158876
2426,0.0
2468,100.0
2474,50.0
2480,0.0
2486,100.0
2656,6886.79934776068
2758,5129123.417694847
2,1, 6,30, 1, 4, 0.00,60.00,Sunday
1140,21.896616461704775
1141,22.011432839321278
1142,21.93062292117553
1143,21.94870260168796
1144,22.202319650998505
2426,0.0
2468,65.0
2474,0.0
2480,0.0
2486,100.0
2656,5496.030031043748
2758,5129123.417694847
2,1, 6,30, 1, 5, 0.00,60.00,Sunday
1140,21.900889202488224
1141,21.954056887962339
1142,21.888461248886196
1143,21.957589697767188
1144,22.11127450530183
2426,0.0
2468,0.0
2474,0.0
2480,0.0
2486,100.0
2656,3306.2236474412104
2758,5129123.417694847
2,1, 6,30, 1, 6, 0.00,60.00,Sunday
1140,21.955629685927059
1141,21.966989087701405
1142,21.88223592694873
1143,22.02926150997998
1144,22.05807906293459
2426,10.0
2468,10.0
2474,0.0
2480,65.0
2486,100.0
2656,4091.542632034917
2758,5129123.417694847
2,1, 6,30, 1, 7, 0.00,60.00,Sunday
1140,21.099802081367906
1141,21.005353578703045
1142,21.01464793000581
1143,21.1543350998113
1144,21.04131195989388
2426,5.0
2468,5.0
2474,0.0
2480,5.0
2486,5.0
2656,7113.403937068455
2758,5129123.417694847
2,1, 6,30, 1, 8, 0.00,60.00,Sunday
1140,21.070813772956318
1141,20.849278564412204
1142,20.824053817500926
1143,21.106615477531645
1144,20.863976318183889
2426,0.0
2468,0.0
2474,0.0
2480,0.0
2486,0.0
2656,6951.9533514390809
2758,5129123.417694847
2,1, 6,30, 1, 9, 0.00,60.00,Sunday
1140,21.34594691701289
1141,21.045668767767926
1142,20.883886337695743
1143,21.315228138527563
1144,20.99026434406899
2426,0.0
2468,0.0
2474,0.0
2480,0.0
2486,0.0
2656,6968.301498874876
2758,5129123.417694847
2,1, 6,30, 1,10, 0.00,60.00,Sunday
1140,21.759280009206038
1141,21.348391521358644
1142,21.00083547066199
1143,21.648896238661356
1144,21.205776580895
2426,0.0
2468,0.0
2474,0.0
2480,0.0
2486,0.0
2656,6987.050136856329
2758,5129123.417694847
2,1, 6,30, 1,11, 0.00,60.00,Sunday
1140,22.193404137921953
1141,21.683995399562698
1142,21.14980953280519
1143,22.000556669142733
1144,21.43301326379103
2426,95.0
2468,0.0
2474,0.0
2480,45.0
2486,0.0
2656,7384.284090672483
2758,5129123.417694847
2,1, 6,30, 1,12, 0.00,60.00,Sunday
1140,22.46697758125318
1141,21.973740591330317
1142,21.311043136186468
1143,22.233645949026334
1144,21.623566033619065
2426,100.0
2468,35.0
2474,0.0
2480,100.0
2486,0.0
2656,8864.73001845509
2758,5129123.417694847
2,1, 6,30, 1,13, 0.00,60.00,Sunday
1140,22.64828664010559
1141,22.205325846693414
1142,21.480597144303198
1143,22.374517456756814
1144,21.8056540310797
2426,100.0
2468,100.0
2474,0.0
2480,100.0
2486,0.0
2656,11270.165318957193
2758,5129123.417694847
2,1, 6,30, 1,14, 0.00,60.00,Sunday
1140,22.84172547803268
1141,22.364634860322249
1142,21.62999420240948
1143,22.545028947703377
1144,21.976706168634743
2426,100.0
2468,100.0
2474,0.0
2480,100.0
2486,35.0
2656,13056.499730835538
2758,5129123.417694847
2,1, 6,30, 1,15, 0.00,60.00,Sunday
1140,23.050771895699286
1141,22.39042466934582
1142,21.744632564494134
1143,22.787632057547535
1144,22.064914120875259
2426,100.0
2468,100.0
2474,0.0
2480,100.0
2486,100.0
2656,15079.870349565346
2758,5129123.417694847
2,1, 6,30, 1,16, 0.00,60.00,Sunday
1140,23.229950989108077
1141,22.275404903439374
1142,21.844331043826334
1143,23.028818027361959
1144,22.012387612614089
2426,100.0
2468,100.0
2474,0.0
2480,100.0
2486,75.0
2656,14253.268295331512
2758,5129123.417694847
2,1, 6,30, 1,17, 0.00,60.00,Sunday
1140,23.181877629696083
1141,22.091602601653599
1142,21.865220233698247
1143,23.087663106373794
1144,21.96213220098337
2426,100.0
2468,100.0
2474,0.0
2480,100.0
2486,0.0
2656,11950.970128995214
2758,5129123.417694847
2,1, 6,30, 1,18, 0.00,60.00,Sunday
1140,22.77395826038619
1141,21.848700451792749
1142,21.76726711084176
1143,22.759797453407964
1144,21.860398359586779
2426,100.0
2468,5.0
2474,0.0
2480,100.0
2486,0.0
2656,8802.860444026026
2758,5129123.417694847
2,1, 6,30, 1,19, 0.00,60.00,Sunday
1140,22.10174949044289
1141,21.597776528885299
1142,21.595439705122023
1143,22.14362085130327
1144,21.692359620632684
2426,70.0
2468,0.0
2474,0.0
2480,80.0
2486,0.0
2656,7485.770346620391
2758,5129123.417694847
2,1, 6,30, 1,20, 0.00,60.00,Sunday
1140,21.63223113620461
1141,21.429065819984826
1142,21.40881496018891
1143,21.690331804804705
1144,21.546023013715279
2426,0.0
2468,0.0
2474,0.0
2480,0.0
2486,0.0
2656,7071.766065370599
2758,5129123.417694847
2,1, 6,30, 1,21, 0.00,60.00,Sunday
1140,22.31381329181363
1141,22.427233170894604
1142,22.185736750208674
1143,22.39121091997076
1144,22.602296300855309
2426,80.0
2468,80.0
2474,75.0
2480,85.0
2486,85.0
2656,8024.645560082194
2758,4359754.90504062
2,1, 6,30, 1,22, 0.00,60.00,Sunday
1140,22.353305712979809
1141,22.696427419633069
1142,22.455028247649716
1143,22.443039441448467
1144,22.906941911702228
2426,100.0
2468,100.0
2474,100.0
2480,100.0
2486,100.0
2656,10274.933697662766
2758,5129123.417694847
2,1, 6,30, 1,23, 0.00,60.00,Sunday
1140,22.143236184383775
1141,22.5438755384533
1142,22.38537397192511
1143,22.23249991600266
1144,22.763753797144099
2426,100.0
2468,100.0
2474,100.0
2480,100.0
2486,100.0
2656,9070.971686074043
2758,5129123.417694847
2,1, 6,30, 1,24, 0.00,60.00,Sunday
1140,21.91389444753822
1141,22.31721359112027
1142,22.253639545616687
1143,21.989200048564777
1144,22.53511145762668
2426,15.0
2468,100.0
2474,100.0
2480,45.0
2486,100.0
2656,6920.066816381497
2758,5129123.417694847
2,2, 7, 1, 1, 1, 0.00,60.00,Monday
1140,21.827687471403487
1141,22.1660704582915
1142,22.131417356549244
1143,21.881856991053199
1144,22.387880134398967
2426,0.0
2468,100.0
2474,100.0
2480,0.0
2486,100.0
2656,9850.739993068264
2758,5129123.417694847
2,2, 7, 1, 1, 2, 0.00,60.00,Monday
1140,21.78592074662917
1141,21.984439102344284
1142,21.982693778652768
1143,21.834147341404085
1144,22.21643062287827
2426,0.0
2468,45.0
2474,45.0
2480,0.0
2486,100.0
2656,6681.727163414621
2758,5129123.417694847
2,2, 7, 1, 1, 3, 0.00,60.00,Monday
1140,21.75114175979917
1141,21.8757148032199
1142,21.872109295931403
1143,21.798284493438389
1144,22.05507508278106
2426,0.0
2468,0.0
2474,0.0
2480,0.0
2486,95.0
2656,3532.0410078408738
2758,4872667.246810105
2,2, 7, 1, 1, 4, 0.00,60.00,Monday
1140,21.71557717568636
1141,21.837423283354818
1142,21.811461589281824
1143,21.763548349401199
1144,21.941891915945378
2426,0.0
2468,0.0
2474,0.0
2480,0.0
2486,0.0
2656,0.0
2758,0.0
2,2, 7, 1, 1, 5, 0.00,60.00,Monday
1140,21.695510938592926
1141,21.82170768939643
1142,21.77334504231962
1143,21.74651492893242
1144,21.903749662850303
2426,0.0
2468,0.0
2474,0.0
2480,0.0
2486,0.0
2656,0.0
2758,0.0
2,2, 7, 1, 1, 6, 0.00,60.00,Monday
1140,21.73897249669734
1141,21.846560428095058
1142,21.777511123467887
1143,21.795524405465448
1144,21.91884265287646
2426,0.0
2468,0.0
2474,0.0
2480,0.0
2486,0.0
2656,0.0
2758,0.0
2,2, 7, 1, 1, 7, 0.00,60.00,Monday
1140,20.909588535803775
1141,20.92014542177814
1142,20.981556755527906
1143,20.974535595836753
1144,20.98824306787408
2426,0.0
2468,0.0
2474,0.0
2480,0.0
2486,0.0
2656,6846.766200028054
2758,5129123.417694847
2,2, 7, 1, 1, 8, 0.00,60.00,Monday
1140,21.400544502949605
1141,21.335963281410704
1142,20.868924893701306
1143,21.45736445026256
1144,21.389116350914806
2426,0.0
2468,0.0
2474,0.0
2480,0.0
2486,0.0
2656,6917.118483316745
2758,5129123.417694847
2,2, 7, 1, 1, 9, 0.00,60.00,Monday
1140,21.986574577821246
1141,21.851517375238847
1142,21.04674787194107
1143,21.979984521570946
1144,21.833844958593134
2426,45.0
2468,10.0
2474,0.0
2480,40.0
2486,0.0
2656,8285.254461928462
2758,5129123.417694847
2,2, 7, 1, 1,10, 0.00,60.00,Monday
1140,22.35401940600057
1141,22.182886183013769
1142,21.257281882602976
1143,22.274766673727585
1144,22.1011265177352
2426,100.0
2468,100.0
2474,0.0
2480,100.0
2486,90.0
2656,21303.084742018098
2758,5129123.417694847
2,2, 7, 1, 1,11, 0.00,60.00,Monday
1140,22.525013905735645
1141,22.348467149993355
1142,21.443687697583028
1143,22.372781988936258
1144,22.20811179290117
2426,100.0
2468,100.0
2474,0.0
2480,100.0
2486,100.0
2656,14925.99666291403
2758,5129123.417694847
2,2, 7, 1, 1,12, 0.00,60.00,Monday
1140,22.727069661996507
1141,22.528429966895979
1142,21.59954044826599
1143,22.495552077244818
1144,22.3133220872854
2426,0.0
2468,0.0
2474,0.0
2480,0.0
2486,0.0
2656,7095.490048551417
2758,5129123.417694847
2,2, 7, 1, 1,13, 0.00,60.00,Monday
1140,22.92330360493703
1141,22.684279080677987
1142,21.705394951173284
1143,22.62445579390602
1144,22.39437517562039
2426,100.0
2468,100.0
2474,0.0
2480,100.0
2486,100.0
2656,18723.5970581152
2758,5129123.417694847
2,2, 7, 1, 1,14, 0.00,60.00,Monday
1140,22.980492232615189
1141,22.685007986645318
1142,21.774533098046246
1143,22.66522196944432
1144,22.38259310804383
2426,0.0
2468,0.0
2474,0.0
2480,0.0
2486,0.0
2656,7247.3427472693169
2758,5129123.417694847
2,2, 7, 1, 1,15, 0.00,60.00,Monday
1140,23.40400390438517
1141,22.806721053573758
1142,21.90999368228191
1143,23.072688006911066
1144,22.481666391891463
2426,0.0
2468,0.0
2474,0.0
2480,0.0
2486,0.0
2656,7095.325353531475
2758,5129123.417694847
2,2, 7, 1, 1,16, 0.00,60.00,Monday
1140,23.87066643501573
1141,22.84950298585529
1142,22.03667032658194
1143,23.5553336238464
1144,22.52843436547799
2426,0.0
2468,0.0
2474,0.0
2480,0.0
2486,0.0
2656,7074.624235834187
2758,5129123.417694847
2,2, 7, 1, 1,17, 0.00,60.00,Monday
1140,23.811561386168039
1141,22.540558952665859
1142,22.015917165696516
1143,23.561862827126754
1144,22.286011880139325
2426,0.0
2468,0.0
2474,0.0
2480,0.0
2486,0.0
2656,7074.624235834187
2758,5129123.417694847
2,2, 7, 1, 1,18, 0.00,60.00,Monday
1140,23.31670496049319
1141,22.308129143806725
1142,21.878088192532858
1143,23.116071175798916
1144,22.12059024306496
2426,0.0
2468,0.0
2474,0.0
2480,0.0
2486,0.0
2656,6971.274734737332
2758,5129123.417694847
2,2, 7, 1, 1,19, 0.00,60.00,Monday
1140,22.854245350435684
1141,22.17936853428518
1142,21.739498444119396
1143,22.685618113496287
1144,22.029518806059849
2426,0.0
2468,0.0
2474,0.0
2480,0.0
2486,0.0
2656,5656.96155958242
2758,5129123.417694847
2,2, 7, 1, 1,20, 0.00,60.00,Monday
1140,22.462346736106519
1141,21.972361247296975
1142,21.57598535199875
1143,22.311080505875116
1144,21.842579407888438
2426,0.0
2468,0.0
2474,0.0
2480,0.0
2486,0.0
2656,5986.5204026963169
2758,5129123.417694847
2,2, 7, 1, 1,21, 0.00,60.00,Monday
1140,22.92980126843469
1141,22.557547141448415
1142,22.234705830518096
1143,22.78145912581514
1144,22.434392819760907
2426,0.0
2468,0.0
2474,0.0
2480,0.0
2486,0.0
2656,0.0
2758,0.0
2,2, 7, 1, 1,22, 0.00,60.00,Monday
1140,23.09643309721418
1141,22.83923897324036
1142,22.51879259763298
1143,22.955588110693843
1144,22.724994709306605
2426,0.0
2468,0.0
2474,0.0
2480,0.0
2486,0.0
2656,0.0
2758,0.0
2,2, 7, 1, 1,23, 0.00,60.00,Monday
1140,23.062997759270755
1141,22.863163189451354
1142,22.57134100030583
1143,22.928663534179827
1144,22.757375840389455
2426,0.0
2468,0.0
2474,0.0
2480,0.0
2486,0.0
2656,0.0
2758,0.0
2,2, 7, 1, 1,24, 0.00,60.00,Monday
1140,22.99019139401259
1141,22.846341529785265
1142,22.583846233102169
1143,22.868160101691097
1144,22.753966539961163
2426,100.0
2468,100.0
2474,100.0
2480,100.0
2486,100.0
2656,11972.622901996774
2758,5129123.417694847
2,3, 7, 2, 1, 1, 0.00,60.00,Tuesday
1140,22.726643975608874
1141,22.698097931950139
1142,22.510652036675717
1143,22.63960817691852
1144,22.638339545839878
2426,100.0
2468,100.0
2474,100.0
2480,100.0
2486,100.0
2656,10707.334534861522
2758,5129123.417694847
2,3, 7, 2, 1, 2, 0.00,60.00,Tuesday
1140,22.419748358052965
1141,22.50872816729302
1142,22.388098879863756
1143,22.36891312729903
1144,22.483171170421877
2426,100.0
2468,100.0
2474,100.0
2480,100.0
2486,100.0
2656,9083.950314502765
2758,5129123.417694847
2,3, 7, 2, 1, 3, 0.00,60.00,Tuesday
1140,22.134020205644135
1141,22.319570177394874
1142,22.248463691425653
1143,22.11097397275892
1144,22.322312420798949
2426,100.0
2468,100.0
2474,100.0
2480,100.0
2486,100.0
2656,7715.000763186564
2758,5129123.417694847
2,3, 7, 2, 1, 4, 0.00,60.00,Tuesday
1140,21.911159659950657
1141,22.149701428316296
1142,22.10996308472436
1143,21.90675478306202
1144,22.174693510210696
2426,10.0
2468,100.0
2474,100.0
2480,5.0
2486,100.0
2656,6998.246629169464
2758,5129123.417694847
2,3, 7, 2, 1, 5, 0.00,60.00,Tuesday
1140,21.814838129438664
1141,22.010698069371469
1142,21.983197539816698
1143,21.817477236334804
1144,22.05144376208752
2426,0.0
2468,60.0
2474,40.0
2480,0.0
2486,100.0
2656,5440.459169095679
2758,5129123.417694847
2,3, 7, 2, 1, 6, 0.00,60.00,Tuesday
1140,21.808074076660505
1141,21.94999365181216
1142,21.915197648982177
1143,21.814620358649447
1144,21.974691601340696
2426,0.0
2468,0.0
2474,0.0
2480,0.0
2486,20.0
2656,605.922577688521
2758,1025824.6835389695
2,3, 7, 2, 1, 7, 0.00,60.00,Tuesday
1140,20.956289761731008
1141,20.98844966143164
1142,21.088465049503659
1143,20.95935220149792
1144,20.996795289477008
2426,0.0
2468,0.0
2474,0.0
2480,0.0
2486,0.0
2656,4412.5629960014289
2758,5129123.417694847
2,3, 7, 2, 1, 8, 0.00,60.00,Tuesday
1140,21.31365389345907
1141,21.335237774172545
1142,20.94283638533026
1143,21.33419690384991
1144,21.353328505838257
2426,0.0
2468,0.0
2474,0.0
2480,0.0
2486,0.0
2656,4478.66968084494
2758,5129123.417694847
2,3, 7, 2, 1, 9, 0.00,60.00,Tuesday
1140,21.60870032169901
1141,21.645519814936998
1142,21.001375316115934
1143,21.61329289995434
1144,21.65853027547429
2426,0.0
2468,0.0
2474,0.0
2480,0.0
2486,0.0
2656,4779.204034763561
2758,5129123.417694847
2,3, 7, 2, 1,10, 0.00,60.00,Tuesday
1140,21.79127254533584
1141,21.792876064899528
1142,21.074492584677519
1143,21.76811151338717
1144,21.774397760218123
2426,0.0
2468,0.0
2474,0.0
2480,0.0
2486,0.0
2656,5190.699372960217
2758,5129123.417694847
2,3, 7, 2, 1,11, 0.00,60.00,Tuesday
1140,21.998167882320919
1141,21.94818595207123
1142,21.156534592161383
1143,21.953929850289084
1144,21.89357354166792
2426,40.0
2468,15.0
2474,0.0
2480,20.0
2486,0.0
2656,5982.3509916493489
2758,5129123.417694847
2,3, 7, 2, 1,12, 0.00,60.00,Tuesday
1140,22.338749537140129
1141,22.21984866517475
1142,21.29908390196506
1143,22.26242339086609
1144,22.112276796210187
2426,100.0
2468,100.0
2474,0.0
2480,100.0
2486,90.0
2656,9955.371438801854
2758,5129123.417694847
2,3, 7, 2, 1,13, 0.00,60.00,Tuesday
1140,22.589779466616599
1141,22.431219774624237
1142,21.47666589513063
1143,22.48725370290751
1144,22.289752426070114
2426,100.0
2468,100.0
2474,0.0
2480,100.0
2486,100.0
2656,11126.242440798149
2758,5129123.417694847
2,3, 7, 2, 1,14, 0.00,60.00,Tuesday
1140,22.509746613098334
1141,22.387997890025639
1142,21.552199798653779
1143,22.431763668094307
1144,22.274391109009028
2426,100.0
2468,100.0
2474,0.0
2480,100.0
2486,100.0
2656,10830.09720179765
2758,5129123.417694847
2,3, 7, 2, 1,15, 0.00,60.00,Tuesday
1140,22.43064043287874
1141,22.317681179511895
1142,21.5525351074799
1143,22.36752324891068
1144,22.226174433205839
2426,100.0
2468,100.0
2474,0.0
2480,100.0
2486,100.0
2656,10622.800930908317
2758,5129123.417694847
2,3, 7, 2, 1,16, 0.00,60.00,Tuesday
1140,22.256579075456196
1141,22.19878248400769
1142,21.534834832025174
1143,22.220287179854606
1144,22.14692374885048
2426,100.0
2468,100.0
2474,0.0
2480,100.0
2486,100.0
2656,10041.885850357317
2758,5129123.417694847
2,3, 7, 2, 1,17, 0.00,60.00,Tuesday
1140,21.85121370995306
1141,21.817962325936479
1142,21.414384935896586
1143,21.834751731053957
1144,21.792192919661848
2426,15.0
2468,15.0
2474,0.0
2480,15.0
2486,10.0
2656,6685.562324734671
2758,5129123.417694847
2,3, 7, 2, 1,18, 0.00,60.00,Tuesday
1140,21.671992756086035
1141,21.656077336262976
1142,21.32942924911421
1143,21.674198064521684
1144,21.65767604496729
2426,0.0
2468,0.0
2474,0.0
2480,0.0
2486,0.0
2656,5911.987519915105
2758,5129123.417694847
2,3, 7, 2, 1,19, 0.00,60.00,Tuesday
1140,21.529580835887168
1141,21.577935112025125
1142,21.246909068618949
1143,21.550451334312056
1144,21.59975989812931
2426,0.0
2468,0.0
2474,0.0
2480,0.0
2486,0.0
2656,5515.984154652198
2758,5129123.417694847
2,3, 7, 2, 1,20, 0.00,60.00,Tuesday
1140,21.295377258735664
1141,21.401879170136576
1142,21.109909399172574
1143,21.322343743372117
1144,21.43083155279685
2426,0.0
2468,0.0
2474,0.0
2480,0.0
2486,0.0
2656,5192.230132412917
2758,5129123.417694847
2,3, 7, 2, 1,21, 0.00,60.00,Tuesday
1140,21.55445764190788
1141,21.821127219713657
1142,21.706094861728347
1143,21.593679788377238
1144,21.869208126559938
2426,0.0
2468,0.0
2474,0.0
2480,0.0
2486,30.0
2656,1110.750533619008
2758,1538737.0253084542
2,3, 7, 2, 1,22, 0.00,60.00,Tuesday
1140,21.66555362822895
1141,22.016767313366818
1142,21.948011377513646
1143,21.713292435955994
1144,22.060197919276868
2426,0.0
2468,95.0
2474,0.0
2480,0.0
2486,100.0
2656,6748.760754702559
2758,5129123.417694847
2,3, 7, 2, 1,23, 0.00,60.00,Tuesday
1140,21.671913261554374
1141,21.979859969814826
1142,21.97461625322976
1143,21.720637601388629
1144,22.01371520057088
2426,0.0
2468,20.0
2474,0.0
2480,0.0
2486,75.0
2656,3286.0463773404665
2758,3846842.5632711357
2,3, 7, 2, 1,24, 0.00,60.00,Tuesday
1140,21.64295375322055
1141,21.94623410667409
1142,21.97076085736624
1143,21.69300702057954
1144,21.950501640660048
2426,0.0
2468,0.0
2474,0.0
2480,0.0
2486,0.0
2656,0.0
2758,0.0
End of Data
 Number of Records Written=         864
