Program Version,EnergyPlus, Version 9.4.0-998c4b761e, YMD=2021.06.28 17:32
1,5,Environment Title[],Latitude[deg],Longitude[deg],Time Zone[],Elevation[m]
2,8,Day of Simulation[],Month[],Day of Month[],DST Indicator[1=yes 0=no],Hour[],StartMinute[],EndMinute[],DayType
3,5,Cumulative Day of Simulation[],Month[],Day of Month[],DST Indicator[1=yes 0=no],DayType  ! When Daily Report Variables Requested
4,2,Cumulative Days of Simulation[],Month[]  ! When Monthly Report Variables Requested
5,1,Cumulative Days of Simulation[] ! When Run Period Report Variables Requested
6,1,Calendar Year of Simulation[] ! When Annual Report Variables Requested
7,1,Environment,Site Outdoor Air Drybulb Temperature [C] !Hourly
761,1,PERIMETER_TOP_ZN_1_WALL_SOUTH,CondFD Phase Change State 1 [] !Hourly
762,1,PERIMETER_TOP_ZN_1_WALL_SOUTH,CondFD Phase Change Node Temperature 1 [C] !Hourly
763,1,PERIMETER_TOP_ZN_1_WALL_SOUTH,CondFD Phase Change State 2 [] !Hourly
764,1,PERIMETER_TOP_ZN_1_WALL_SOUTH,CondFD Phase Change Node Temperature 2 [C] !Hourly
765,1,PERIMETER_TOP_ZN_1_WALL_SOUTH,CondFD Phase Change State 3 [] !Hourly
766,1,PERIMETER_TOP_ZN_1_WALL_SOUTH,CondFD Phase Change Node Temperature 3 [C] !Hourly
767,1,PERIMETER_TOP_ZN_1_WALL_SOUTH,CondFD Phase Change State 4 [] !Hourly
768,1,PERIMETER_TOP_ZN_1_WALL_SOUTH,CondFD Phase Change Node Temperature 4 [C] !Hourly
769,1,PERIMETER_TOP_ZN_1_WALL_SOUTH,CondFD Phase Change State 5 [] !Hourly
770,1,PERIMETER_TOP_ZN_1_WALL_SOUTH,CondFD Phase Change Node Temperature 5 [C] !Hourly
771,1,PERIMETER_TOP_ZN_1_WALL_SOUTH,CondFD Phase Change State 6 [] !Hourly
772,1,PERIMETER_TOP_ZN_1_WALL_SOUTH,CondFD Phase Change Node Temperature 6 [C] !Hourly
773,1,PERIMETER_TOP_ZN_1_WALL_SOUTH,CondFD Phase Change State 7 [] !Hourly
774,1,PERIMETER_TOP_ZN_1_WALL_SOUTH,CondFD Phase Change Node Temperature 7 [C] !Hourly
775,1,PERIMETER_TOP_ZN_1_WALL_SOUTH,CondFD Phase Change State 8 [] !Hourly
776,1,PERIMETER_TOP_ZN_1_WALL_SOUTH,CondFD Phase Change Node Temperature 8 [C] !Hourly
785,1,PERIMETER_TOP_ZN_1,Zone Mean Air Temperature [C] !Hourly
2064,1,PERI1_TOP_LOTEMP,Zone Radiant HVAC Heating Rate [W] !Hourly
2067,1,PERI1_TOP_LOTEMP,Zone Radiant HVAC Cooling Rate [W] !Hourly
2070,1,PERI1_TOP_LOTEMP,Zone Radiant HVAC Inlet Temperature [C] !Hourly
2071,1,PERI1_TOP_LOTEMP,Zone Radiant HVAC Pump Inlet Temperature [C] !Hourly
End of Data Dictionary
1,ATLANTA-HARTSFIELD.JACKSON.INTL.AP_GA_USA ANN HTG 99.6% CONDNS DB,  41.98, -87.92,  -6.00, 201.00
2,1, 1,21, 0, 1, 0.00,60.00,WinterDesignDay
7,-6.300000000000007
762,-7.8104347755236
764,-7.6249351580295789
766,-7.439571378932673
768,-7.393211778239249
770,-7.3469246154577549
772,12.585132721699813
774,12.63091184274969
776,12.675750216474598
785,13.39602823403678
761,0.0
763,0.0
765,2.0
767,2.0
769,2.0
771,2.0
773,2.0
775,2.0
2064,0.0
2067,0.0
2070,13.92286956999999
2071,13.92286956999999
2,1, 1,21, 0, 2, 0.00,60.00,WinterDesignDay
7,-6.300000000000007
762,-7.811672764712089
764,-7.626340998585231
766,-7.441145460615002
768,-7.3948279392721
770,-7.348582662769659
772,12.565513175565217
774,12.611308986061062
776,12.656280510560287
785,13.384925134576863
761,0.0
763,0.0
765,2.0
767,2.0
769,2.0
771,2.0
773,2.0
775,2.0
2064,0.0
2067,0.0
2070,13.565890119999983
2071,13.565890119999983
2,1, 1,21, 0, 3, 0.00,60.00,WinterDesignDay
7,-6.300000000000007
762,-7.812898783951927
764,-7.627731729240584
766,-7.4426978815294009
768,-7.396419509682115
770,-7.350211517615092
772,12.548259012161067
774,12.594066952973238
776,12.639147210651322
785,13.374845006861172
761,0.0
763,0.0
765,2.0
767,2.0
769,2.0
771,2.0
773,2.0
775,2.0
2064,0.0
2067,0.0
2070,10.354093980000008
2071,10.354093980000008
2,1, 1,21, 0, 4, 0.00,60.00,WinterDesignDay
7,-6.300000000000007
762,-7.8140874218717599
764,-7.629079052266466
766,-7.444198698159304
768,-7.397956607671641
770,-7.351781977517537
772,12.532975065227986
774,12.578791788066202
776,12.623961921016662
785,13.36567579206644
761,0.0
763,0.0
765,2.0
767,2.0
769,2.0
771,2.0
773,2.0
775,2.0
2064,0.0
2067,0.0
2070,12.566846869999987
2071,12.566846869999987
2,1, 1,21, 0, 5, 0.00,60.00,WinterDesignDay
7,-6.300000000000007
762,-7.815222869599841
764,-7.630365404501345
766,-7.445629458928485
768,-7.399420889536008
770,-7.353276237119361
772,12.51935539411708
774,12.565178293773304
776,12.610423116780515
785,13.357299734699457
761,0.0
763,0.0
765,2.0
767,2.0
769,2.0
771,2.0
773,2.0
775,2.0
2064,0.0
2067,0.0
2070,10.179507520000007
2071,10.179507520000007
2,1, 1,21, 0, 6, 0.00,60.00,WinterDesignDay
7,-6.300000000000007
762,-7.816296052956612
764,-7.6315807574425
766,-7.446979798267139
768,-7.400802141494447
770,-7.3546845424599989
772,12.507145923917081
774,12.55297287637246
776,12.598279895782956
785,13.349604543268786
761,0.0
763,0.0
765,2.0
767,2.0
769,2.0
771,2.0
773,2.0
775,2.0
2064,0.0
2067,0.0
2070,11.914148129999984
2071,11.914148129999984
2,1, 1,21, 0, 7, 0.00,60.00,WinterDesignDay
7,-6.300000000000007
762,-7.817260809913403
764,-7.632664957443523
766,-7.448155865119356
768,-7.4019877087821
770,-7.355859791234442
772,12.515523490765496
774,12.562413050916092
776,12.610924214394713
785,13.741070329709306
761,0.0
763,0.0
765,2.0
767,2.0
769,2.0
771,2.0
773,2.0
775,2.0
2064,0.0
2067,0.0
2070,10.427184239999985
2071,10.427184239999985
2,1, 1,21, 0, 8, 0.00,60.00,WinterDesignDay
7,-6.300000000000007
762,-7.817738148186308
764,-7.633174501881161
766,-7.448623327468344
768,-7.402414431714587
770,-7.3562053882483229
772,12.559069184523342
774,12.606266497826728
776,12.655436580091186
785,13.830094662220957
761,0.0
763,0.0
765,2.0
767,2.0
769,2.0
771,2.0
773,2.0
775,2.0
2064,0.0
2067,0.0
2070,14.035722800000004
2071,14.035722800000004
2,1, 1,21, 0, 9, 0.00,60.00,WinterDesignDay
7,-6.300000000000007
762,-7.817581643129171
764,-7.632969977401689
766,-7.448310791555891
768,-7.402051953876254
770,-7.355763156248001
772,12.600217911305787
774,12.647379157414047
776,12.696249549741923
785,13.85381141264006
761,0.0
763,0.0
765,2.0
767,2.0
769,2.0
771,2.0
773,2.0
775,2.0
2064,0.0
2067,0.0
2070,14.046290920000015
2071,14.046290920000015
2,1, 1,21, 0,10, 0.00,60.00,WinterDesignDay
7,-6.300000000000007
762,-7.816968777657283
764,-7.632256260997763
766,-7.447456465884413
768,-7.401147432845258
770,-7.35478904220283
772,12.635264765584138
774,12.682371233619766
776,12.730919296339233
785,13.871242551494197
761,0.0
763,0.0
765,2.0
767,2.0
769,2.0
771,2.0
773,2.0
775,2.0
2064,0.0
2067,0.0
2070,13.303326829999982
2071,13.303326829999982
2,1, 1,21, 0,11, 0.00,60.00,WinterDesignDay
7,-6.300000000000007
762,-7.816064606924768
764,-7.63121876194755
766,-7.446261493250666
768,-7.399904035441316
770,-7.353485650880291
772,12.664830690895207
774,12.711891126419796
776,12.760170433989688
785,13.886007641012414
761,0.0
763,0.0
765,2.0
767,2.0
769,2.0
771,2.0
773,2.0
775,2.0
2064,0.0
2067,0.0
2070,10.777765049999982
2071,10.777765049999982
2,1, 1,21, 0,12, 0.00,60.00,WinterDesignDay
7,-6.300000000000007
762,-7.814991158025011
764,-7.62999403844735
766,-7.4448724624779099
768,-7.398469109217904
770,-7.351998783421343
772,12.689934475290876
774,12.736960114471806
776,12.78502588402262
785,13.8990706230382
761,0.0
763,0.0
765,2.0
767,2.0
769,2.0
771,2.0
773,2.0
775,2.0
2064,0.0
2067,0.0
2070,12.92794513000001
2071,12.92794513000001
2,1, 1,21, 0,13, 0.00,60.00,WinterDesignDay
7,-6.300000000000007
762,-7.813833898124799
764,-7.628677589159444
766,-7.443391440800055
768,-7.396945034997243
770,-7.3504293941315119
772,12.711462427681365
774,12.758462531608588
776,12.806359423581276
785,13.910792846347198
761,0.0
763,0.0
765,2.0
767,2.0
769,2.0
771,2.0
773,2.0
775,2.0
2064,0.0
2067,0.0
2070,14.33531091999999
2071,14.33531091999999
2,1, 1,21, 0,14, 0.00,60.00,WinterDesignDay
7,-6.300000000000007
762,-7.812651040897214
764,-7.627334390139646
766,-7.441887656494983
768,-7.3954011449365739
770,-7.348845665430369
772,12.730109373093681
774,12.777090941645895
776,12.82485333914647
785,13.921377177340155
761,0.0
763,0.0
765,2.0
767,2.0
769,2.0
771,2.0
773,2.0
775,2.0
2064,0.0
2067,0.0
2070,13.298617450000016
2071,13.298617450000016
2,1, 1,21, 0,15, 0.00,60.00,WinterDesignDay
7,-6.300000000000007
762,-7.811481196184355
764,-7.626007474273625
766,-7.440406763641096
768,-7.39388305924282
770,-7.347292282893193
772,12.746425698188969
774,12.793394250291922
776,12.841049270364941
785,13.931035150310528
761,0.0
763,0.0
765,2.0
767,2.0
769,2.0
771,2.0
773,2.0
775,2.0
2064,0.0
2067,0.0
2070,14.14997583000001
2071,14.14997583000001
2,1, 1,21, 0,16, 0.00,60.00,WinterDesignDay
7,-6.300000000000007
762,-7.8103490506994499
764,-7.624724315472326
766,-7.438977786458747
768,-7.3924197215318598
770,-7.3457975008680329
772,12.760809039140338
774,12.807767904816112
776,12.855334234390105
785,13.939748705505105
761,0.0
763,0.0
765,2.0
767,2.0
769,2.0
771,2.0
773,2.0
775,2.0
2064,0.0
2067,0.0
2070,12.27754674000001
2071,12.27754674000001
2,1, 1,21, 0,17, 0.00,60.00,WinterDesignDay
7,-6.300000000000007
762,-7.8092698064911849
764,-7.623501785850644
766,-7.4376184011719419
768,-7.391028678069584
770,-7.344378303769833
772,12.773576494690719
774,12.820528060363607
776,12.868019892776335
785,13.947627107557749
761,0.0
763,0.0
765,2.0
767,2.0
769,2.0
771,2.0
773,2.0
775,2.0
2064,0.0
2067,0.0
2070,11.690410769999982
2071,11.690410769999982
2,1, 1,21, 0,18, 0.00,60.00,WinterDesignDay
7,-6.300000000000007
762,-7.80825207062016
764,-7.622349396228211
766,-7.436338441171548
768,-7.389719621301901
770,-7.343043953854649
772,12.784966042160587
774,12.83191256377312
776,12.87934267021734
785,13.954838845647709
761,0.0
763,0.0
765,2.0
767,2.0
769,2.0
771,2.0
773,2.0
775,2.0
2064,0.0
2067,0.0
2070,12.079521419999994
2071,12.079521419999994
2,1, 1,21, 0,19, 0.00,60.00,WinterDesignDay
7,-6.300000000000007
762,-7.807342234030466
764,-7.621327592666205
766,-7.435232187864214
768,-7.388605683748211
770,-7.3419420808547699
772,12.77578461284457
774,12.821676018792884
776,12.865929111346134
785,13.558806650026803
761,0.0
763,0.0
765,2.0
767,2.0
769,2.0
771,2.0
773,2.0
775,2.0
2064,0.0
2067,0.0
2070,14.297923269999988
2071,14.297923269999988
2,1, 1,21, 0,20, 0.00,60.00,WinterDesignDay
7,-6.300000000000007
762,-7.806914743945342
764,-7.620874158987653
766,-7.434825876234474
768,-7.388240845593062
770,-7.3416583792167089
772,12.732338580564179
774,12.777933246847337
776,12.821558000341229
785,13.471920854154627
761,0.0
763,0.0
765,2.0
767,2.0
769,2.0
771,2.0
773,2.0
775,2.0
2064,0.0
2067,0.0
2070,10.35017739
2071,10.35017739
2,1, 1,21, 0,21, 0.00,60.00,WinterDesignDay
7,-6.300000000000007
762,-7.80711054677555
764,-7.621122919364485
766,-7.435186781986837
768,-7.388652448458647
770,-7.342150145669387
772,12.691030337849299
774,12.736650863589765
776,12.780545304349563
785,13.44773237739103
761,0.0
763,0.0
765,2.0
767,2.0
769,2.0
771,2.0
773,2.0
775,2.0
2064,0.0
2067,0.0
2070,12.230120469999984
2071,12.230120469999984
2,1, 1,21, 0,22, 0.00,60.00,WinterDesignDay
7,-6.300000000000007
762,-7.807758609573375
764,-7.621876489572546
766,-7.43608549048903
768,-7.389602457776927
770,-7.343170829556862
772,12.655470999365863
774,12.701139299653772
776,12.745337357442433
785,13.42999235713802
761,0.0
763,0.0
765,2.0
767,2.0
769,2.0
771,2.0
773,2.0
775,2.0
2064,0.0
2067,0.0
2070,14.056545499999997
2071,14.056545499999997
2,1, 1,21, 0,23, 0.00,60.00,WinterDesignDay
7,-6.300000000000007
762,-7.808698371107111
764,-7.622954421738391
766,-7.437325924850898
768,-7.390892659137756
770,-7.344522483100476
772,12.625200843191055
774,12.670910778308516
776,12.715367553179611
785,13.414942123576975
761,0.0
763,0.0
765,2.0
767,2.0
769,2.0
771,2.0
773,2.0
775,2.0
2064,0.0
2067,0.0
2070,12.157724600000013
2071,12.157724600000013
2,1, 1,21, 0,24, 0.00,60.00,WinterDesignDay
7,-6.300000000000007
762,-7.80980958428097
764,-7.624222093344582
766,-7.438763362765386
768,-7.392377470753371
770,-7.346060863202472
772,12.599311134393022
774,12.645053074184979
776,12.68971845119343
785,13.401576096282082
761,0.0
763,0.0
765,2.0
767,2.0
769,2.0
771,2.0
773,2.0
775,2.0
2064,0.0
2067,0.0
2070,10.996945129999983
2071,10.996945129999983
1,ATLANTA-HARTSFIELD.JACKSON.INTL.AP_GA_USA ANN CLG .4% CONDNS DB=>MWB,  41.98, -87.92,  -6.00, 201.00
2,1, 7,21, 0, 1, 0.00,60.00,SummerDesignDay
7,26.32025
762,27.3385738402883
764,27.855700327328333
766,28.257077598265448
768,28.326989823611716
770,28.331571289765696
772,18.230987706363118
774,18.411235942300587
776,18.583893497972438
785,22.78543027853677
761,0.0
763,0.0
765,-2.0
767,-2.0
769,-2.0
771,1.0
773,1.0
775,1.0
2064,0.0
2067,3380.907206138004
2070,12.948268535252343
2071,12.8937541505943
2,1, 7,21, 0, 2, 0.00,60.00,SummerDesignDay
7,25.84683333333334
762,26.316467418389708
764,26.75453171815244
766,27.094314480937205
768,27.15312707425053
770,27.156100410408727
772,18.181159420693697
774,18.35978720999992
776,18.530686163709125
785,22.693440904873154
761,0.0
763,0.0
765,-2.0
767,-2.0
769,-2.0
771,1.0
773,1.0
775,1.0
2064,0.0
2067,3315.4948557851137
2070,12.987941662395818
2071,12.93342298172762
2,1, 7,21, 0, 3, 0.00,60.00,SummerDesignDay
7,25.515125
762,25.456094417216709
764,25.82311904848573
766,26.106958548202138
768,26.15559259865578
770,26.156935997175386
772,18.13361977610448
774,18.311061531078697
776,18.48068785827295
785,22.617773904864508
761,0.0
763,0.0
765,-2.0
767,-2.0
769,-2.0
771,1.0
773,1.0
775,1.0
2064,0.0
2067,3261.896823781594
2070,13.020449993600096
2071,12.965928307934198
2,1, 7,21, 0, 4, 0.00,60.00,SummerDesignDay
7,25.230124999999995
762,24.7253834000787
764,25.033104763633749
766,25.27011716683146
768,25.310227199203387
770,25.310213267022314
772,18.08897204864999
774,18.265333754460678
776,18.433882186365478
785,22.55066411104755
761,0.0
763,0.0
765,-2.0
767,-2.0
769,-2.0
771,1.0
773,1.0
775,1.0
2064,0.0
2067,3214.403994386498
2070,13.04925589879013
2071,12.994731643239833
2,1, 7,21, 0, 5, 0.00,60.00,SummerDesignDay
7,24.993416666666673
762,24.144139663502114
764,24.379539388389384
766,24.565096119594295
768,24.59600519395621
770,24.59423709028378
772,18.047367293422746
774,18.222765333457905
776,18.39044469897588
785,22.493891118495136
761,0.0
763,0.0
765,-2.0
767,-2.0
769,-2.0
771,1.0
773,1.0
775,1.0
2064,0.0
2067,3173.9450204474899
2070,13.073795914448484
2071,13.01926951025156
2,1, 7,21, 0, 6, 0.00,60.00,SummerDesignDay
7,24.996583333333335
762,24.324542275041858
764,24.25665087504761
766,24.217712429377106
768,24.20586092062062
770,24.190768472803709
772,18.007208136090524
774,18.1818713831044
776,18.348218137717614
785,22.464048731455696
761,0.0
763,0.0
765,-2.0
767,-2.0
769,-2.0
771,1.0
773,1.0
775,1.0
2064,0.0
2067,3152.6464506168388
2070,13.086714507016229
2071,13.032188074682648
2,1, 7,21, 0, 7, 0.00,60.00,SummerDesignDay
7,25.42804166666666
762,25.36579671358971
764,24.934800886572249
766,24.601044308694236
768,24.53047853385382
770,24.495140343628969
772,17.95058891113066
774,18.136960852071888
776,18.312471495729015
785,22.836195424900365
761,0.0
763,0.0
765,-2.0
767,-2.0
769,-2.0
771,1.0
773,1.0
775,1.0
2064,0.0
2067,3409.4623635623618
2070,12.930950562836138
2071,12.876427949753362
2,1, 7,21, 0, 8, 0.00,60.00,SummerDesignDay
7,26.575958333333334
762,27.050132354845155
764,26.262592893682215
766,25.655644048706788
768,25.531000865748575
770,25.475869117185373
772,17.889149602348565
774,18.086261379449366
776,18.272247765671584
785,23.081721550816263
761,0.0
763,0.0
765,-2.0
767,-2.0
769,-2.0
771,1.0
773,1.0
775,1.0
2064,0.0
2067,3585.9744734197449
2070,12.823899506036066
2071,12.769385894202829
2,1, 7,21, 0, 9, 0.00,60.00,SummerDesignDay
7,28.287541666666664
762,30.931407771514548
764,29.235633742342633
766,27.928991297692943
768,27.666482637018324
770,27.56193150179565
772,17.832848167999644
774,18.042389691473305
776,18.241772893078524
785,23.476206378959934
761,0.0
763,0.0
765,-2.0
767,-2.0
769,-2.0
771,1.0
773,1.0
775,1.0
2064,0.0
2067,3861.3149083871546
2070,12.656926015671381
2071,12.602414968094159
2,1, 7,21, 0,10, 0.00,60.00,SummerDesignDay
7,29.995958333333328
762,36.3234331107424
764,33.897986215687698
766,31.969639435364436
768,31.578792346557024
770,31.423882887586804
772,17.782777580177418
774,18.00741432681755
776,18.225456809748
785,23.95908168396331
761,0.0
763,0.0
765,-2.0
767,-2.0
769,-2.0
771,1.0666666666666667
773,1.0
775,1.0666666666666667
2064,0.0
2067,4206.20221474747
2070,12.447797687414859
2071,12.393286639837639
2,1, 7,21, 0,11, 0.00,60.00,SummerDesignDay
7,31.514374999999995
762,41.862576855246647
764,39.16489849696733
766,36.97684363848443
768,36.52794350225118
770,36.344206198630228
772,17.811711300914689
774,18.032330349718376
776,18.25743234024641
785,23.999957228985879
761,0.0
763,0.0
765,-2.0
767,-2.0
769,-2.0
771,2.0
773,1.9666666666666666
775,2.0
2064,0.0
2067,4237.880512714863
2070,12.428590078593164
2071,12.37407903101594
2,1, 7,21, 0,12, 0.00,60.00,SummerDesignDay
7,32.697916666666667
762,46.627855851602699
764,44.10078098283238
766,42.0100612416556
768,41.57372818837793
770,41.38476379345988
772,17.997816078107524
774,18.210358328418395
776,18.43376022834376
785,24.000009626951507
761,0.0
763,0.0
765,-2.0
767,-2.0
769,-2.0
771,2.0
773,2.0
775,2.0
2064,0.0
2067,4237.917568480275
2070,12.428567601921538
2071,12.374056554344323
2,1, 7,21, 0,13, 0.00,60.00,SummerDesignDay
7,33.55133333333333
762,49.95308013033196
764,47.94579766106509
766,46.243184784534587
768,45.87817640083156
770,45.70516440384132
772,18.271881800387868
774,18.47601088716376
776,18.69303734095127
785,24.000007660275608
761,0.0
763,0.0
765,-2.0
767,-2.0
769,-2.0
771,2.0
773,2.0
775,2.0
2064,0.0
2067,4237.917020740558
2070,12.428567934272423
2071,12.374056886695208
2,1, 7,21, 0,14, 0.00,60.00,SummerDesignDay
7,34.16645833333333
762,51.493318478367957
764,50.23253348501008
766,49.10925661417945
768,48.85503483516511
770,48.71364038230256
772,18.544479174936883
774,18.741471741514237
776,18.949925987472708
785,24.00001073129211
761,0.0
763,0.0
765,-2.0
767,-2.0
769,-2.0
771,2.0
773,2.0
775,2.0
2064,0.0
2067,4237.918744002846
2070,12.428566888652164
2071,12.374055841074942
2,1, 7,21, 0,15, 0.00,60.00,SummerDesignDay
7,34.40000000000004
762,51.06804520086054
764,50.68867221175189
766,50.26217085972334
768,50.1438647644181
770,50.04552474158602
772,18.749953990070006
774,18.94228774495495
776,19.142116448894716
785,23.999984042714777
761,0.0
763,0.0
765,-2.0
767,-2.0
769,-2.0
771,2.0
773,2.0
775,2.0
2064,0.0
2067,4237.900415878952
2070,12.42857800956964
2071,12.374066961992428
2,1, 7,21, 0,16, 0.00,60.00,SummerDesignDay
7,34.110250000000018
762,48.711905221487459
764,49.245978452666509
766,49.553247428246759
768,49.58034773880859
770,49.53155748470864
772,18.850379701416576
774,19.041442261971136
776,19.234681277431393
785,23.999940307451224
761,0.0
763,0.0
765,-2.0
767,-2.0
769,-2.0
771,1.8666666666666668
773,1.6
775,1.4666666666666666
2064,0.0
2067,4237.869658144447
2070,12.428596661009305
2071,12.374085613432094
2,1, 7,21, 0,17, 0.00,60.00,SummerDesignDay
7,33.44366666666667
762,45.06839968598891
764,46.25871918468026
766,47.13582583540539
768,47.28001669043653
770,47.274859594348047
772,18.84493056781429
774,19.038232155711805
776,19.228514174286983
785,23.99989788803675
761,0.0
763,0.0
765,-2.0
767,-2.0
769,-2.0
771,1.0
773,-2.0
775,-2.0
2064,0.0
2067,4237.839413386438
2070,12.428615010552197
2071,12.374103962974987
2,1, 7,21, 0,18, 0.00,60.00,SummerDesignDay
7,32.58708333333333
762,42.02613804115878
764,43.228196751175008
766,44.14422859625055
768,44.30057700185306
770,44.305195121897309
772,18.772398204645787
774,18.969933766963089
776,19.160498270168998
785,23.998371416618935
761,0.0
763,0.0
765,-2.0
767,-2.0
769,-2.0
771,1.0
773,0.5
775,-2.0
2064,0.0
2067,4237.006538342793
2070,12.42911998525099
2071,12.374608937673767
2,1, 7,21, 0,19, 0.00,60.00,SummerDesignDay
7,31.395624999999997
762,38.926454303703817
764,40.200061406301127
766,41.170495813943
768,41.33976171818848
770,41.353872470563519
772,18.67376438202026
774,18.87197801431956
776,19.062069168325548
785,23.871208070420889
761,0.0
763,0.0
765,-2.0
767,-2.0
769,-2.0
771,1.0
773,1.0
775,-2.0
2064,0.0
2067,4149.135646389593
2070,12.482398967605305
2071,12.42788792002808
2,1, 7,21, 0,20, 0.00,60.00,SummerDesignDay
7,30.16379166666667
762,35.84668705364097
764,37.119560828355677
766,38.11140955280284
768,38.288758155993978
770,38.311238748082697
772,18.583307147114625
774,18.780898530323517
776,18.970283461581294
785,23.704178616039255
761,0.0
763,0.0
765,-2.0
767,-2.0
769,-2.0
771,1.0
773,1.0
775,0.45
2064,0.0
2067,4030.695239356195
2070,12.554215549273835
2071,12.499704501696617
2,1, 7,21, 0,21, 0.00,60.00,SummerDesignDay
7,29.215374999999999
762,33.48569239122714
764,34.53742358920036
766,35.36400607426515
768,35.5118204970513
770,35.529573939441899
772,18.493826426995058
774,18.690928550549555
776,18.878925592420044
785,23.566075788960544
761,0.0
763,0.0
765,-2.0
767,-2.0
769,-2.0
771,1.0
773,1.0
775,1.0
2064,0.0
2067,3932.6171233180818
2070,12.61368761656991
2071,12.559176568992694
2,1, 7,21, 0,22, 0.00,60.00,SummerDesignDay
7,28.360375
762,31.554753470681236
764,32.420648166770508
766,33.09830962346068
768,33.21858672121764
770,33.23122832092692
772,18.405766717043738
774,18.60264877235281
776,18.789884459996043
785,23.453095080614604
761,0.0
763,0.0
765,-2.0
767,-2.0
769,-2.0
771,1.0
773,1.0
775,1.0
2064,0.0
2067,3852.649081713941
2070,12.662179737274034
2071,12.607668689696818
2,1, 7,21, 0,23, 0.00,60.00,SummerDesignDay
7,27.60195833333334
762,29.920031745088126
764,30.64162802882363
766,31.205184768353666
768,31.30458700243521
770,31.313689920736889
772,18.337942068814237
774,18.525963875679808
776,18.706021731397674
785,23.100612168329755
761,0.0
763,0.0
765,-2.0
767,-2.0
769,-2.0
771,1.0
773,1.0
775,1.0
2064,0.0
2067,3607.040615861558
2070,12.81112406736422
2071,12.756613019787004
2,1, 7,21, 0,24, 0.00,60.00,SummerDesignDay
7,26.936958333333334
762,28.5357380106891
764,29.142043418032249
766,29.61374488041507
768,29.696359393221635
770,29.70273665583253
772,18.283540099267154
774,18.466779544459475
776,18.642434319417096
785,22.92317107458549
761,0.0
763,0.0
765,-2.0
767,-2.0
769,-2.0
771,1.0
773,1.0
775,1.0
2064,0.0
2067,3478.4439025914327
2070,12.889113394371574
2071,12.83460229761155
1,RUNPERIOD 1,  41.98, -87.92,  -6.00, 201.00
2,1, 6, 1, 0, 1, 0.00,60.00,Monday
7,15.74
762,16.888058225515125
764,17.345516402669604
766,17.84359091604389
768,17.94584268685063
770,17.982888683898815
772,18.794098545740576
774,18.81454700182359
776,18.87208829374906
785,21.03474303721756
761,0.0
763,0.0
765,1.05
767,1.0
769,1.0
771,2.0
773,2.0
775,2.0
2064,0.0
2067,0.0
2070,15.0
2071,15.0
2,1, 6, 1, 0, 2, 0.00,60.00,Monday
7,18.15083333333332
762,17.659851193794578
764,17.7209164571694
766,17.793371431647907
768,17.810493663484757
770,17.81970103919621
772,19.444494960148135
774,19.46298293170309
776,19.510997523884734
785,21.395829514170896
761,0.0
763,0.0
765,1.2333333333333335
767,1.0
769,1.0
771,2.0
773,2.0
775,2.0
2064,0.0
2067,0.0
2070,15.0
2071,15.0
2,1, 6, 1, 0, 3, 0.00,60.00,Monday
7,18.20000000000002
762,17.68945451449876
764,17.734625634446055
766,17.77871693485757
768,17.78814641325744
770,17.794508893317518
772,19.876670220492529
774,19.893303193031789
776,19.933706172713227
785,21.528107978130728
761,0.0
763,0.0
765,1.0
767,1.0
769,1.0
771,1.6
773,1.45
775,1.05
2064,0.0
2067,0.0
2070,15.0
2071,15.0
2,1, 6, 1, 0, 4, 0.00,60.00,Monday
7,18.250833333333327
762,17.693600766650304
764,17.729625874635237
766,17.76628822133072
768,17.77465429656586
770,17.781144159182735
772,20.157127650620227
774,20.17250535287502
776,20.20782021908072
785,21.60214629162856
761,0.0
763,0.0
765,1.0
767,1.0
769,1.0
771,-1.0
773,-1.0
775,-1.0
2064,0.0
2067,0.0
2070,15.0
2071,15.0
2,1, 6, 1, 0, 5, 0.00,60.00,Monday
7,18.04583333333333
762,17.746513541798995
764,17.753312667978024
766,17.768761087144147
768,17.773594168769927
770,17.77921672766608
772,20.34934321348366
774,20.363929131196359
776,20.395994729261216
785,21.660471145063629
761,0.0
763,0.0
765,1.55
767,1.4666666666666666
769,1.4333333333333334
771,-1.0
773,-1.0
775,-1.0
2064,0.0
2067,0.0
2070,15.0
2071,15.0
2,1, 6, 1, 0, 6, 0.00,60.00,Monday
7,16.935833333333336
762,17.943471986855628
764,17.8989098716682
766,17.868263361348658
768,17.865294760804184
770,17.868374760201179
772,20.49301799224147
774,20.507115446947738
776,20.53742716710935
785,21.672477842565077
761,0.0
763,0.0
765,2.0
767,2.0
769,2.0
771,-1.0
773,-1.0
775,-1.0
2064,0.0
2067,0.0
2070,15.0
2071,15.0
2,1, 6, 1, 0, 7, 0.00,60.00,Monday
7,15.845833333333332
762,18.343332299618444
764,18.175142160666398
766,18.063770078628786
768,18.048273173740918
770,18.04725630101604
772,20.60919387779891
774,20.623370613356774
776,20.654483652685007
785,21.949662876701827
761,0.0
763,0.0
765,2.0
767,2.0
769,2.0
771,-1.0
773,-1.0
775,-1.0
2064,0.0
2067,0.0
2070,15.0
2071,15.0
2,1, 6, 1, 0, 8, 0.00,60.00,Monday
7,16.159166666666669
762,19.943149386065536
764,19.3094717604527
766,18.828901862946226
768,18.75140833793773
770,18.727020535763879
772,19.3266784507785
774,19.562596395721188
776,19.68400366488942
785,21.42007648127412
761,0.0
763,0.0
765,2.0
767,2.0
769,2.0
771,-0.9
773,-1.35
775,-1.65
2064,0.0
2067,4967.1814694915669
2070,11.986462494976776
2071,11.931861153425383
2,1, 6, 1, 0, 9, 0.00,60.00,Monday
7,17.81833333333333
762,22.869454775402244
764,21.44128161128844
766,20.2692817422636
768,20.083646441905765
770,20.022764417819738
772,18.004871005385544
774,18.30411079224624
776,18.476464794566018
785,21.958073678416207
761,0.0
763,0.0
765,0.0
767,0.3
769,0.4
771,1.0
773,1.0
775,1.0
2064,0.0
2067,6308.71761629822
2070,11.173477020400798
2071,11.11888839268317
2,1, 6, 1, 0,10, 0.00,60.00,Monday
7,19.459166666666666
762,26.712025174776099
764,24.23851678595271
766,22.077485718822339
768,21.600489677522455
770,21.436554094167144
772,17.06073029809451
774,17.4719940636036
776,17.733640077195515
785,22.51838319114715
761,0.0
763,0.0
765,-1.4666666666666666
767,-1.2666666666666667
769,-1.2166666666666666
771,1.4
773,1.1333333333333334
775,1.0
2064,0.0
2067,7665.583173106012
2070,10.351543634969194
2071,10.296967855730822
2,1, 6, 1, 0,11, 0.00,60.00,Monday
7,20.559166666666667
762,31.230563429813637
764,28.58625619734136
766,26.430925600005865
768,25.99360388318633
770,25.82768133369206
772,15.078844388688064
774,15.506541628168782
776,15.819268427897635
785,22.740333599764566
761,0.0
763,0.0
765,-2.0
767,-2.0
769,-2.0
771,2.0
773,2.0
775,2.0
2064,0.0
2067,8236.689708966256
2070,10.005708193296894
2071,9.95114157946884
2,1, 6, 1, 0,12, 0.00,60.00,Monday
7,21.65916666666667
762,35.56018062922486
764,33.24720888654951
766,31.324176899195704
768,30.92556782503197
770,30.7596631150543
772,13.081274076997034
774,13.513099958467267
776,13.874159764765802
785,22.66237039152176
761,0.0
763,0.0
765,-2.0
767,-2.0
769,-2.0
771,2.0
773,2.0
775,2.0
2064,0.0
2067,8246.117130845374
2070,10.0
2071,9.945443317215423
2,1, 6, 1, 0,13, 0.00,60.00,Monday
7,22.759166666666667
762,37.5253712533931
764,36.09140530528637
766,34.85120288066492
768,34.58374740257695
770,34.45711745015936
772,14.682547857742425
774,14.726953250235944
776,14.933611508135849
785,22.4763445363455
761,0.0
763,0.0
765,-2.0
767,-2.0
769,-2.0
771,2.0
773,2.0
775,2.0
2064,0.0
2067,0.0
2070,15.0
2071,15.0
2,1, 6, 1, 0,14, 0.00,60.00,Monday
7,23.299999999999974
762,39.160136654045299
764,38.03091891074622
766,37.0695044262773
768,36.86023864198971
770,36.75503386810909
772,17.80668080855948
774,17.82248862051734
776,17.957119653654915
785,23.193091553371628
761,0.0
763,0.0
765,-2.0
767,-2.0
769,-2.0
771,2.0
773,2.0
775,2.0
2064,0.0
2067,0.0
2070,15.0
2071,15.0
2,1, 6, 1, 0,15, 0.00,60.00,Monday
7,23.604999999999995
762,39.3153158856726
764,38.889485068178668
766,38.44765945468826
768,38.338482366399798
770,38.26696292659999
772,19.80099215651934
774,19.802178135551686
776,19.8907179426477
785,23.494472349529404
761,0.0
763,0.0
765,-2.0
767,-2.0
769,-2.0
771,0.85
773,0.85
775,0.65
2064,0.0
2067,0.0
2070,15.0
2071,15.0
2,1, 6, 1, 0,16, 0.00,60.00,Monday
7,24.459166666666666
762,37.225257086139979
764,37.72926095255005
766,38.04067471725189
768,38.08145652274375
770,38.06183698706888
772,20.619067863455745
774,20.614008133605503
776,20.678909129662295
785,23.325579133175898
761,0.0
763,0.0
765,-2.0
767,-2.0
769,-2.0
771,-1.0
773,-1.0
775,-1.0
2064,0.0
2067,0.0
2070,15.0
2071,15.0
2,1, 6, 1, 0,17, 0.00,60.00,Monday
7,24.44083333333333
762,34.30578031156969
764,35.31469997898171
766,36.07480999143733
768,36.207243434711127
770,36.21915133921882
772,18.97282856390774
774,19.32864811691423
776,19.52678142709688
785,22.977306474978115
761,0.0
763,0.0
765,-2.0
767,-2.0
769,-2.0
771,-0.25
773,-0.75
775,-1.0833333333333333
2064,0.0
2067,8246.117130845374
2070,10.0
2071,9.945468745549752
2,1, 6, 1, 0,18, 0.00,60.00,Monday
7,23.34083333333334
762,31.753002789432708
764,32.80536110647625
766,33.62006152789651
768,33.76542589318116
770,33.78377058315458
772,17.588990274423794
774,17.985667394743776
776,18.21240027692585
785,22.080946832301938
761,0.0
763,0.0
765,-2.0
767,-2.0
769,-2.0
771,1.0
773,1.0
775,1.0
2064,0.0
2067,8246.117130845374
2070,10.0
2071,9.945458825627977
2,1, 6, 1, 0,19, 0.00,60.00,Monday
7,21.68166666666667
762,29.024486231012859
764,30.207229555079768
766,31.104750709548978
768,31.26605986308032
770,31.29138411988095
772,16.11230351786923
774,16.524479439076918
776,16.78961459682934
785,21.376072304914588
761,0.0
763,0.0
765,-2.0
767,-2.0
769,-2.0
771,1.9166666666666668
773,1.6666666666666668
775,1.55
2064,0.0
2067,8246.117130845374
2070,10.0
2071,9.94544401485596
2,1, 6, 1, 0,20, 0.00,60.00,Monday
7,18.871666666666667
762,25.467328842517664
764,26.933918945770644
766,28.072938808628604
768,28.283080154284347
770,28.325746681994198
772,13.678262502871295
774,14.047789705636463
776,14.329958523004617
785,20.633888648681965
761,0.0
763,0.0
765,-2.0
767,-2.0
769,-2.0
771,2.0
773,2.0
775,2.0
2064,0.0
2067,7219.090705473448
2070,10.622014738661513
2071,10.567435054777758
2,1, 6, 1, 0,21, 0.00,60.00,Monday
7,15.5225