Program Version,EnergyPlus, Version 9.4.0-998c4b761e, YMD=2021.06.25 18:44
1,5,Environment Title[],Latitude[deg],Longitude[deg],Time Zone[],Elevation[m]
2,8,Day of Simulation[],Month[],Day of Month[],DST Indicator[1=yes 0=no],Hour[],StartMinute[],EndMinute[],DayType
3,5,Cumulative Day of Simulation[],Month[],Day of Month[],DST Indicator[1=yes 0=no],DayType  ! When Daily Meters Requested
4,2,Cumulative Days of Simulation[],Month[]  ! When Monthly Meters Requested
5,1,Cumulative Days of Simulation[] ! When Run Period Meters Requested
6,1,Calendar Year of Simulation[] ! When Annual Meters Requested
60,1,Electricity:Facility [J] !Hourly
1717,1,ElectricityNet:Facility [J] !Hourly
96,1,InteriorLights:Electricity [J] !Hourly
513,1,InteriorEquipment:Electricity [J] !Hourly
End of Data Dictionary
1,ATLANTA-HARTSFIELD.JACKSON.INTL.AP_GA_USA ANN HTG 99.6% CONDNS DB,  41.98, -87.92,  -6.00, 201.00
2,1, 1,21, 0, 1, 0.00,60.00,WinterDesignDay
60,29869065.203772557
96,0.0
513,0.0
1717,29869065.203772557
2,1, 1,21, 0, 2, 0.00,60.00,WinterDesignDay
60,29863065.203772557
96,0.0
513,0.0
1717,29863065.203772557
2,1, 1,21, 0, 3, 0.00,60.00,WinterDesignDay
60,29869065.203772557
96,0.0
513,0.0
1717,29869065.203772557
2,1, 1,21, 0, 4, 0.00,60.00,WinterDesignDay
60,29881065.203772557
96,0.0
513,0.0
1717,29881065.203772557
2,1, 1,21, 0, 5, 0.00,60.00,WinterDesignDay
60,29887065.203772557
96,0.0
513,0.0
1717,29887065.203772557
2,1, 1,21, 0, 6, 0.00,60.00,WinterDesignDay
60,29845065.203772557
96,0.0
513,0.0
1717,29845065.203772557
2,1, 1,21, 0, 7, 0.00,60.00,WinterDesignDay
60,39551325.20377252
96,0.0
513,0.0
1717,39551325.203772548
2,1, 1,21, 0, 8, 0.00,60.00,WinterDesignDay
60,27131535.203772557
96,0.0
513,0.0
1717,27131535.20377256
2,1, 1,21, 0, 9, 0.00,60.00,WinterDesignDay
60,21167925.203772557
96,0.0
513,0.0
1717,21167925.203772557
2,1, 1,21, 0,10, 0.00,60.00,WinterDesignDay
60,21155925.203772557
96,0.0
513,0.0
1717,21155925.203772557
2,1, 1,21, 0,11, 0.00,60.00,WinterDesignDay
60,21167925.203772557
96,0.0
513,0.0
1717,21167925.203772557
2,1, 1,21, 0,12, 0.00,60.00,WinterDesignDay
60,21257925.203772557
96,0.0
513,0.0
1717,21257925.203772557
2,1, 1,21, 0,13, 0.00,60.00,WinterDesignDay
60,21275925.203772557
96,0.0
513,0.0
1717,21275925.203772557
2,1, 1,21, 0,14, 0.00,60.00,WinterDesignDay
60,21131925.203772557
96,0.0
513,0.0
1717,21131925.203772557
2,1, 1,21, 0,15, 0.00,60.00,WinterDesignDay
60,21077925.203772557
96,0.0
513,0.0
1717,21077925.203772557
2,1, 1,21, 0,16, 0.00,60.00,WinterDesignDay
60,21197925.203772557
96,0.0
513,0.0
1717,21197925.203772557
2,1, 1,21, 0,17, 0.00,60.00,WinterDesignDay
60,25662585.203772557
96,0.0
513,0.0
1717,25662585.203772557
2,1, 1,21, 0,18, 0.00,60.00,WinterDesignDay
60,40109325.20377252
96,0.0
513,0.0
1717,40109325.203772578
2,1, 1,21, 0,19, 0.00,60.00,WinterDesignDay
60,40709325.203772518
96,0.0
513,0.0
1717,40709325.20377255
2,1, 1,21, 0,20, 0.00,60.00,WinterDesignDay
60,32372445.203772557
96,0.0
513,0.0
1717,32372445.203772557
2,1, 1,21, 0,21, 0.00,60.00,WinterDesignDay
60,32360445.203772557
96,0.0
513,0.0
1717,32360445.203772557
2,1, 1,21, 0,22, 0.00,60.00,WinterDesignDay
60,32414445.203772557
96,0.0
513,0.0
1717,32414445.203772557
2,1, 1,21, 0,23, 0.00,60.00,WinterDesignDay
60,32408445.203772557
96,0.0
513,0.0
1717,32408445.203772557
2,1, 1,21, 0,24, 0.00,60.00,WinterDesignDay
60,32414445.203772557
96,0.0
513,0.0
1717,32414445.203772557
1,ATLANTA-HARTSFIELD.JACKSON.INTL.AP_GA_USA ANN CLG .4% CONDNS DB=>MWB,  41.98, -87.92,  -6.00, 201.00
2,1, 7,21, 0, 1, 0.00,60.00,SummerDesignDay
60,421627090.77084276
96,152517470.7542746
513,224813060.55296675
1717,421627090.7708422
2,1, 7,21, 0, 2, 0.00,60.00,SummerDesignDay
60,421567090.77084276
96,152517470.7542746
513,224813060.55296675
1717,421567090.77084216
2,1, 7,21, 0, 3, 0.00,60.00,SummerDesignDay
60,421567090.77084276
96,152517470.7542746
513,224813060.55296675
1717,421567090.77084216
2,1, 7,21, 0, 4, 0.00,60.00,SummerDesignDay
60,421531090.77084276
96,152517470.7542746
513,224813060.55296675
1717,421531090.77084216
2,1, 7,21, 0, 5, 0.00,60.00,SummerDesignDay
60,417629297.9524686
96,151903095.9359005
513,224813060.55296675
1717,417629297.952468
2,1, 7,21, 0, 6, 0.00,60.00,SummerDesignDay
60,389671787.6795941
96,128071818.04907707
513,224813060.55296675
1717,389671787.67959418
2,1, 7,21, 0, 7, 0.00,60.00,SummerDesignDay
60,384132550.90040519
96,120497854.10498229
513,224813060.55296675
1717,384132550.90040519
2,1, 7,21, 0, 8, 0.00,60.00,SummerDesignDay
60,387345031.4980624
96,119991185.40467149
513,224813060.55296675
1717,387345031.4980624
2,1, 7,21, 0, 9, 0.00,60.00,SummerDesignDay
60,387517430.2069702
96,119991185.40467149
513,224813060.55296675
1717,387517430.2069702
2,1, 7,21, 0,10, 0.00,60.00,SummerDesignDay
60,388274643.9841958
96,119991185.40467149
513,224813060.55296675
1717,388274643.9841958
2,1, 7,21, 0,11, 0.00,60.00,SummerDesignDay
60,388595421.7422791
96,119991185.40467149
513,224813060.55296675
1717,388595421.7422792
2,1, 7,21, 0,12, 0.00,60.00,SummerDesignDay
60,388357810.615338
96,119991185.40467149
513,224813060.55296675
1717,388357810.615338
2,1, 7,21, 0,13, 0.00,60.00,SummerDesignDay
60,388531098.0039762
96,119991185.40467149
513,224813060.55296675
1717,388531098.0039762
2,1, 7,21, 0,14, 0.00,60.00,SummerDesignDay
60,389243095.71983769
96,119991185.40467149
513,224813060.55296675
1717,389243095.71983769
2,1, 7,21, 0,15, 0.00,60.00,SummerDesignDay
60,389553615.4296589
96,119991185.40467149
513,224813060.55296675
1717,389553615.4296589
2,1, 7,21, 0,16, 0.00,60.00,SummerDesignDay
60,389139779.1864546
96,119991185.40467149
513,224813060.55296675
1717,389139779.1864546
2,1, 7,21, 0,17, 0.00,60.00,SummerDesignDay
60,388167761.9180548
96,119991185.40467149
513,224813060.55296675
1717,388167761.9180548
2,1, 7,21, 0,18, 0.00,60.00,SummerDesignDay
60,387699647.5248008
96,120633945.22274417
513,224813060.55296675
1717,387699647.5248008
2,1, 7,21, 0,19, 0.00,60.00,SummerDesignDay
60,396254264.56159648
96,130861359.31742129
513,224813060.55296675
1717,396254264.56159648
2,1, 7,21, 0,20, 0.00,60.00,SummerDesignDay
60,424386152.96487018
96,152399856.5668155
513,224813060.55296675
1717,424386152.96487018
2,1, 7,21, 0,21, 0.00,60.00,SummerDesignDay
60,427508673.4598838
96,152517470.7542746
513,224813060.55296675
1717,427508673.4598838
2,1, 7,21, 0,22, 0.00,60.00,SummerDesignDay
60,427550949.7526532
96,152517470.7542746
513,224813060.55296675
1717,427550949.7526532
2,1, 7,21, 0,23, 0.00,60.00,SummerDesignDay
60,424478470.77084276
96,152517470.7542746
513,224813060.55296675
1717,424478470.7708422
2,1, 7,21, 0,24, 0.00,60.00,SummerDesignDay
60,424472470.77084276
96,152517470.7542746
513,224813060.55296675
1717,424472470.7708422
1,RUNPERIOD 1,  41.98, -87.92,  -6.00, 201.00
2,1, 3, 1, 0, 1, 0.00,60.00,Sunday
60,63794347.672702368
96,7625873.53771374
513,33399901.50135806
1717,63794347.67270236
2,1, 3, 1, 0, 2, 0.00,60.00,Sunday
60,63572347.672702338
96,7625873.53771374
513,33399901.50135806
1717,63572347.672702338
2,1, 3, 1, 0, 3, 0.00,60.00,Sunday
60,63306357.80424465
96,7625873.53771374
513,33399901.50135806
1717,63306357.804244648
2,1, 3, 1, 0, 4, 0.00,60.00,Sunday
60,63010367.935786958
96,7625873.53771374
513,33399901.50135806
1717,63010367.935786958
2,1, 3, 1, 0, 5, 0.00,60.00,Sunday
60,64774307.146533098
96,7625873.53771374
513,33399901.50135806
1717,64774307.14653309
2,1, 3, 1, 0, 6, 0.00,60.00,Sunday
60,64582307.146533098
96,7625873.53771374
513,33399901.50135806
1717,64582307.14653309
2,1, 3, 1, 0, 7, 0.00,60.00,Sunday
60,68695743.17212777
96,6568699.919713121
513,41385398.908734139
1717,68695743.17212777
2,1, 3, 1, 0, 8, 0.00,60.00,Sunday
60,62586375.20378039
96,6125574.056042683
513,41385398.908734139
1717,62586375.20378039
2,1, 3, 1, 0, 9, 0.00,60.00,Sunday
60,52501030.6512113
96,5477864.76795041
513,41385398.908734139
1717,52501030.6512113
2,1, 3, 1, 0,10, 0.00,60.00,Sunday
60,50451435.87617843
96,5194199.072121367
513,41385398.908734139
1717,50451435.87617843
2,1, 3, 1, 0,11, 0.00,60.00,Sunday
60,57321375.031556699
96,5174421.910684347
513,41385398.908734139
1717,57321375.031556699
2,1, 3, 1, 0,12, 0.00,60.00,Sunday
60,57449602.72981274
96,5214639.4773981
513,41385398.908734139
1717,57449602.72981277
2,1, 3, 1, 0,13, 0.00,60.00,Sunday
60,54981475.6848805
96,5212421.24858501
513,41385398.908734139
1717,54981475.68488052
2,1, 3, 1, 0,14, 0.00,60.00,Sunday
60,51208969.28660127
96,5225762.877171123
513,41385398.908734139
1717,51208969.28660127
2,1, 3, 1, 0,15, 0.00,60.00,Sunday
60,49948003.97112471
96,5174746.903983026
513,41385398.908734139
1717,49948003.97112471
2,1, 3, 1, 0,16, 0.00,60.00,Sunday
60,59608799.335589628
96,5229937.398598024
513,41385398.908734139
1717,59608799.335589628
2,1, 3, 1, 0,17, 0.00,60.00,Sunday
60,55753961.46321198
96,5390937.421543387
513,41385398.908734139
1717,55753961.46321198
2,1, 3, 1, 0,18, 0.00,60.00,Sunday
60,68674122.1810895
96,6328500.112555638
513,41385398.908734139
1717,68674122.1810895
2,1, 3, 1, 0,19, 0.00,60.00,Sunday
60,75674567.14653312
96,7625873.53771374
513,33399901.50135806
1717,75674567.14653312
2,1, 3, 1, 0,20, 0.00,60.00,Sunday
60,64369798.59349858
96,7625873.53771374
513,33399901.50135806
1717,64369798.593498568
2,1, 3, 1, 0,21, 0.00,60.00,Sunday
60,67391687.14653309
96,7625873.53771374
513,33399901.50135806
1717,67391687.14653309
2,1, 3, 1, 0,22, 0.00,60.00,Sunday
60,67391687.14653309
96,7625873.53771374
513,33399901.50135806
1717,67391687.14653309
2,1, 3, 1, 0,23, 0.00,60.00,Sunday
60,67149697.2780754
96,7625873.53771374
513,33399901.50135806
1717,67149697.2780754
2,1, 3, 1, 0,24, 0.00,60.00,Sunday
60,65573747.93578698
96,7625873.53771374
513,33399901.50135806
1717,65573747.93578698
2,2, 3, 2, 0, 1, 0.00,60.00,Monday
60,74423648.17315509
96,7625873.53771374
513,44533202.00181081
1717,74423648.17315509
2,2, 3, 2, 0, 2, 0.00,60.00,Monday
60,74551668.4362397
96,7625873.53771374
513,44533202.00181081
1717,74551668.4362397
2,2, 3, 2, 0, 3, 0.00,60.00,Monday
60,75907607.64698586
96,7625873.53771374
513,44533202.00181081
1717,75907607.64698586
2,2, 3, 2, 0, 4, 0.00,60.00,Monday
60,75473617.77852817
96,7625873.53771374
513,44533202.00181081
1717,75473617.77852817
2,2, 3, 2, 0, 5, 0.00,60.00,Monday
60,74789648.1731551
96,7625873.53771374
513,44533202.00181081
1717,74789648.1731551
2,2, 3, 2, 0, 6, 0.00,60.00,Monday
60,78993653.42091885
96,15251747.07542748
513,44533202.00181081
1717,78993653.42091885
2,2, 3, 2, 0, 7, 0.00,60.00,Monday
60,87901843.99553082
96,12793847.641995743
513,55180531.87831209
1717,87901843.99553085
2,2, 3, 2, 0, 8, 0.00,60.00,Monday
60,150020684.61034794
96,32816265.989801755
513,95796493.41677362
1717,150020684.61034794
2,2, 3, 2, 0, 9, 0.00,60.00,Monday
60,339782687.80819436
96,93948905.15704035
513,204227663.7591696
1717,339782687.80819436
2,2, 3, 2, 0,10, 0.00,60.00,Monday
60,313125230.06520089
96,93124323.85391505
513,174055806.61631225
1717,313125230.06520089
2,2, 3, 2, 0,11, 0.00,60.00,Monday
60,305826205.77755257
96,93124323.85391505
513,167093070.3525762
1717,305826205.7775533
2,2, 3, 2, 0,12, 0.00,60.00,Monday
60,313346942.0412895
96,93124323.85391505
513,174055806.61631225
1717,313346942.0412895
2,2, 3, 2, 0,13, 0.00,60.00,Monday
60,316964649.73105189
96,93124323.85391505
513,177667514.30607493
1717,316964649.73105189
2,2, 3, 2, 0,14, 0.00,60.00,Monday
60,319005222.2610697
96,93124323.85391505
513,179858086.83609239
1717,319005222.26106968
2,2, 3, 2, 0,15, 0.00,60.00,Monday
60,305814290.17002388
96,93136408.24638629
513,167093070.3525762
1717,305814290.17002466
2,2, 3, 2, 0,16, 0.00,60.00,Monday
60,306801502.9212456
96,94075620.99760753
513,167093070.3525762
1717,306801502.9212456
2,2, 3, 2, 0,17, 0.00,60.00,Monday
60,320542429.959815
96,97372443.64057255
513,177537174.74818046
1717,320542429.959815
2,2, 3, 2, 0,18, 0.00,60.00,Monday
60,259598842.7561847
96,64331531.611957948
513,140923939.57316477
1717,259598842.7561847
2,2, 3, 2, 0,19, 0.00,60.00,Monday
60,156690207.5755858
96,39455915.8435987
513,69106004.40578471
1717,156690207.57558579
2,2, 3, 2, 0,20, 0.00,60.00,Monday
60,140093727.33005897
96,39455915.8435987
513,59822356.054136309
1717,140093727.33005897
2,2, 3, 2, 0,21, 0.00,60.00,Monday
60,117664745.15364117
96,26303943.895732464
513,59822356.054136309
1717,117664745.15364117
2,2, 3, 2, 0,22, 0.00,60.00,Monday
60,92786985.64250234
96,26303943.895732464
513,55180531.87831209
1717,92786985.64250234
2,2, 3, 2, 0,23, 0.00,60.00,Monday
60,86016750.27453594
96,13151971.947866232
513,55180531.87831209
1717,86016750.27453594
2,2, 3, 2, 0,24, 0.00,60.00,Monday
60,86180511.01204498
96,6575985.973933116
513,55180531.87831209
1717,86180511.01204498
2,3, 3, 3, 0, 1, 0.00,60.00,Tuesday
60,71693769.75166279
96,7625873.53771374
513,44533202.00181081
1717,71693769.75166279
2,3, 3, 3, 0, 2, 0.00,60.00,Tuesday
60,75643607.64698586
96,7625873.53771374
513,44533202.00181081
1717,75643607.64698586
2,3, 3, 3, 0, 3, 0.00,60.00,Tuesday
60,73651698.83086665
96,7625873.53771374
513,44533202.00181081
1717,73651698.83086665
2,3, 3, 3, 0, 4, 0.00,60.00,Tuesday
60,75387627.91007048
96,7625873.53771374
513,44533202.00181081
1717,75387627.91007048
2,3, 3, 3, 0, 5, 0.00,60.00,Tuesday
60,72443739.35703588
96,7625873.53771374
513,44533202.00181081
1717,72443739.35703588
2,3, 3, 3, 0, 6, 0.00,60.00,Tuesday
60,84211481.18469957
96,15251747.07542748
513,44533202.00181081
1717,84211481.18469957
2,3, 3, 3, 0, 7, 0.00,60.00,Tuesday
60,84925278.4909981
96,13107550.69049763
513,55180531.87831209
1717,84925278.4909981
2,3, 3, 3, 0, 8, 0.00,60.00,Tuesday
60,152424965.3366386
96,35238546.71609248
513,95796493.41677362
1717,152424965.3366386
2,3, 3, 3, 0, 9, 0.00,60.00,Tuesday
60,338366746.1989201
96,93916896.24826765
513,204227663.7591696
1717,338366746.1989201
2,3, 3, 3, 0,10, 0.00,60.00,Tuesday
60,313917125.86195209
96,94246507.67457786
513,174055806.61631225
1717,313917125.86195209
2,3, 3, 3, 0,11, 0.00,60.00,Tuesday
60,306439226.1238976
96,93761344.20025957
513,167093070.3525762
1717,306439226.1238977
2,3, 3, 3, 0,12, 0.00,60.00,Tuesday
60,312764942.0412895
96,93124323.85391505
513,174055806.61631225
1717,312764942.0412895
2,3, 3, 3, 0,13, 0.00,60.00,Tuesday
60,317048649.73105189
96,93124323.85391505
513,177667514.30607493
1717,317048649.73105189
2,3, 3, 3, 0,14, 0.00,60.00,Tuesday
60,318885222.2610697
96,93124323.85391505
513,179858086.83609239
1717,318885222.26106968
2,3, 3, 3, 0,15, 0.00,60.00,Tuesday
60,306666583.10065647
96,93856701.17701805
513,167093070.3525762
1717,306666583.10065647
2,3, 3, 3, 0,16, 0.00,60.00,Tuesday
60,307678202.5626471
96,94682320.63900942
513,167093070.3525762
1717,307678202.5626472
2,3, 3, 3, 0,17, 0.00,60.00,Tuesday
60,325736858.0392977
96,102386871.72005534
513,177537174.74818046
1717,325736858.0392977
2,3, 3, 3, 0,18, 0.00,60.00,Tuesday
60,260304396.39497016
96,65005465.25074342
513,140923939.57316477
1717,260304396.39497016
2,3, 3, 3, 0,19, 0.00,60.00,Tuesday
60,149451389.77152054
96,39455915.8435987
513,69106004.40578471
1717,149451389.7715205
2,3, 3, 3, 0,20, 0.00,60.00,Tuesday
60,130696717.1015076
96,39455915.8435987
513,59822356.054136309
1717,130696717.1015076
2,3, 3, 3, 0,21, 0.00,60.00,Tuesday
60,117658745.15364117
96,26303943.895732464
513,59822356.054136309
1717,117658745.15364117
2,3, 3, 3, 0,22, 0.00,60.00,Tuesday
60,92768985.64250234
96,26303943.895732464
513,55180531.87831209
1717,92768985.64250234
2,3, 3, 3, 0,23, 0.00,60.00,Tuesday
60,89462618.56448591
96,13151971.947866232
513,55180531.87831209
1717,89462618.56448591
2,3, 3, 3, 0,24, 0.00,60.00,Tuesday
60,85600531.27512957
96,6575985.973933116
513,55180531.87831209
1717,85600531.27512957
2,4, 3, 4, 0, 1, 0.00,60.00,Wednesday
60,74635638.04161279
96,7625873.53771374
513,44533202.00181081
1717,74635638.04161279
2,4, 3, 4, 0, 2, 0.00,60.00,Wednesday
60,70509810.27783203
96,7625873.53771374
513,44533202.00181081
1717,70509810.27783203
2,4, 3, 4, 0, 3, 0.00,60.00,Wednesday
60,76615607.64698586
96,7625873.53771374
513,44533202.00181081
1717,76615607.64698586
2,4, 3, 4, 0, 4, 0.00,60.00,Wednesday
60,72227739.35703588
96,7625873.53771374
513,44533202.00181081
1717,72227739.35703588
2,4, 3, 4, 0, 5, 0.00,60.00,Wednesday
60,73605688.69932434
96,7625873.53771374
513,44533202.00181081
1717,73605688.69932434
2,4, 3, 4, 0, 6, 0.00,60.00,Wednesday
60,79827623.0262919
96,15251747.07542748
513,44533202.00181081
1717,79827623.0262919
2,4, 3, 4, 0, 7, 0.00,60.00,Wednesday
60,87936837.21169804
96,13123641.384332233
513,55180531.87831209
1717,87936837.21169804
2,4, 3, 4, 0, 8, 0.00,60.00,Wednesday
60,153863407.3430327
96,36142988.72248644
513,95796493.41677362
1717,153863407.3430327
2,4, 3, 4, 0, 9, 0.00,60.00,Wednesday
60,342351576.49383738
96,97017630.33094275
513,204227663.7591696
1717,342351576.49383738
2,4, 3, 4, 0,10, 0.00,60.00,Wednesday
60,313939495.80546358
96,94274877.61808934
513,174055806.61631225
1717,313939495.80546358
2,4, 3, 4, 0,11, 0.00,60.00,Wednesday
60,306648883.522954
96,93971001.59931587
513,167093070.3525762
1717,306648883.522954
2,4, 3, 4, 0,12, 0.00,60.00,Wednesday
60,313070352.8093533
96,93429734.62197909
513,174055806.61631225
1717,313070352.8093533
2,4, 3, 4, 0,13, 0.00,60.00,Wednesday
60,316466649.73105189
96,93124323.85391505
513,177667514.30607493
1717,316466649.73105189
2,4, 3, 4, 0,14, 0.00,60.00,Wednesday
60,318567222.2610697
96,93124323.85391505
513,179858086.83609239
1717,318567222.26106968
2,4, 3, 4, 0,15, 0.00,60.00,Wednesday
60,306436478.5021921
96,93758596.5785538
513,167093070.3525762
1717,306436478.5021921
2,4, 3, 4, 0,16, 0.00,60.00,Wednesday
60,307651321.549461
96,94973439.6258234
513,167093070.3525762
1717,307651321.549461
2,4, 3, 4, 0,17, 0.00,60.00,Wednesday
60,328676631.8117736
96,105374645.49253135
513,177537174.74818046
1717,328676631.8117736
2,4, 3, 4, 0,18, 0.00,60.00,Wednesday
60,259583618.27748776
96,65348877.13326108
513,140923939.57316477
1717,259583618.27748779
2,4, 3, 4, 0,19, 0.00,60.00,Wednesday
60,150133437.877642
96,39455915.8435987
513,69106004.40578471
1717,150133437.877642
2,4, 3, 4, 0,20, 0.00,60.00,Wednesday
60,130690717.1015076
96,39455915.8435987
513,59822356.054136309
1717,130690717.1015076
2,4, 3, 4, 0,21, 0.00,60.00,Wednesday
60,117550745.15364117
96,26303943.895732464
513,59822356.054136309
1717,117550745.15364117
2,4, 3, 4, 0,22, 0.00,60.00,Wednesday
60,92768985.64250234
96,26303943.895732464
513,55180531.87831209
1717,92768985.64250234
2,4, 3, 4, 0,23, 0.00,60.00,Wednesday
60,94800446.32826664
96,13151971.947866232
513,55180531.87831209
1717,94800446.32826664
2,4, 3, 4, 0,24, 0.00,60.00,Wednesday
60,86394490.74896033
96,6575985.973933116
513,55180531.87831209
1717,86394490.74896033
2,5, 3, 5, 0, 1, 0.00,60.00,Thursday
60,75415638.04161279
96,7625873.53771374
513,44533202.00181081
1717,75415638.04161279
2,5, 3, 5, 0, 2, 0.00,60.00,Thursday
60,74585648.17315509
96,7625873.53771374
513,44533202.00181081
1717,74585648.17315509
2,5, 3, 5, 0, 3, 0.00,60.00,Thursday
60,74561648.1731551
96,7625873.53771374
513,44533202.00181081
1717,74561648.1731551
2,5, 3, 5, 0, 4, 0.00,60.00,Thursday
60,74635668.43623972
96,7625873.53771374
513,44533202.00181081
1717,74635668.43623972
2,5, 3, 5, 0, 5, 0.00,60.00,Thursday
60,75699627.91007048
96,7625873.53771374
513,44533202.00181081
1717,75699627.91007048
2,5, 3, 5, 0, 6, 0.00,60.00,Thursday
60,82579511.57932648
96,15251747.07542748
513,44533202.00181081
1717,82579511.57932648
2,5, 3, 5, 0, 7, 0.00,60.00,Thursday
60,83107805.5032868
96,12982617.308159385
513,55180531.87831209
1717,83107805.5032868
2,5, 3, 5, 0, 8, 0.00,60.00,Thursday
60,150488672.34088097
96,33908253.72033492
513,95796493.41677362
1717,150488672.34088097
2,5, 3, 5, 0, 9, 0.00,60.00,Thursday
60,339631684.2216975
96,95283009.57053821
513,204227663.7591696
1717,339631684.2216975
2,5, 3, 5, 0,10, 0.00,60.00,Thursday
60,312828546.97886148
96,93187928.79148703
513,174055806.61631225
1717,312828546.97886148
2,5, 3, 5, 0,11, 0.00,60.00,Thursday
60,305802205.77755257
96,93124323.85391505
513,167093070.3525762
1717,305802205.7775533
2,5, 3, 5, 0,12, 0.00,60.00,Thursday
60,312782942.0412895
96,93124323.85391505
513,174055806.61631225
1717,312782942.0412895
2,5, 3, 5, 0,13, 0.00,60.00,Thursday
60,317036649.73105189
96,93124323.85391505
513,177667514.30607493
1717,317036649.73105189
2,5, 3, 5, 0,14, 0.00,60.00,Thursday
60,319010128.7772899
96,93124323.85391505
513,179858086.83609239
1717,319010128.77728989
2,5, 3, 5, 0,15, 0.00,60.00,Thursday
60,306007456.41303536
96,93131574.4893978
513,167093070.3525762
1717,306007456.4130361
2,5, 3, 5, 0,16, 0.00,60.00,Thursday
60,307052999.17307659
96,94105117.24943874
513,167093070.3525762
1717,307052999.17307659
2,5, 3, 5, 0,17, 0.00,60.00,Thursday
60,326450159.2358925
96,102884172.91665012
513,177537174.74818046
1717,326450159.2358925
2,5, 3, 5, 0,18, 0.00,60.00,Thursday
60,259672357.76492206
96,65037806.62069534
513,140923939.57316477
1717,259672357.76492206
2,5, 3, 5, 0,19, 0.00,60.00,Thursday
60,149487389.77152054
96,39455915.8435987
513,69106004.40578471
1717,149487389.7715205
2,5, 3, 5, 0,20, 0.00,60.00,Thursday
60,130612717.1015076
96,39455915.8435987
513,59822356.054136309
1717,130612717.1015076
2,5, 3, 5, 0,21, 0.00,60.00,Thursday
60,117742745.15364117
96,26303943.895732464
513,59822356.054136309
1717,117742745.15364117
2,5, 3, 5, 0,22, 0.00,60.00,Thursday
60,92780985.64250234
96,26303943.895732464
513,55180531.87831209
1717,92780985.64250234
2,5, 3, 5, 0,23, 0.00,60.00,Thursday
60,91828517.2490628
96,13151971.947866232
513,55180531.87831209
1717,91828517.2490628
2,5, 3, 5, 0,24, 0.00,60.00,Thursday
60,82680642.72209512
96,6575985.973933116
513,55180531.87831209
1717,82680642.72209512
2,6, 3, 6, 0, 1, 0.00,60.00,Friday
60,72777749.48857819
96,7625873.53771374
513,44533202.00181081
1717,72777749.48857819
2,6, 3, 6, 0, 2, 0.00,60.00,Friday
60,73863688.69932433
96,7625873.53771374
513,44533202.00181081
1717,73863688.69932433
2,6, 3, 6, 0, 3, 0.00,60.00,Friday
60,76147607.64698586
96,7625873.53771374
513,44533202.00181081
1717,76147607.64698586
2,6, 3, 6, 0, 4, 0.00,60.00,Friday
60,66813962.25096666
96,7625873.53771374
513,44533202.00181081
1717,66813962.25096666
2,6, 3, 6, 0, 5, 0.00,60.00,Friday
60,65356023.040220547
96,7625873.53771374
513,44533202.00181081
1717,65356023.040220547
2,6, 3, 6, 0, 6, 0.00,60.00,Friday
60,82797531.84241112
96,15251747.07542748
513,44533202.00181081
1717,82797531.84241112
2,6, 3, 6, 0, 7, 0.00,60.00,Friday
60,86995498.85605495
96,12750883.160231444
513,55180531.87831209
1717,86995498.85605502
2,6, 3, 6, 0, 8, 0.00,60.00,Friday
60,149406825.76240368
96,32142407.14185739
513,95796493.41677362
1717,149406825.76240368
2,6, 3, 6, 0, 9, 0.00,60.00,Friday
60,338415485.3770556
96,93509386.00462142
513,204227663.7591696
1717,338415485.3770556
2,6, 3, 6, 0,10, 0.00,60.00,Friday
60,312860942.0412895
96,93124323.85391505
513,174055806.61631225
1717,312860942.0412895
2,6, 3, 6, 0,11, 0.00,60.00,Friday
60,306042205.77755257
96,93124323.85391505
513,167093070.3525762
1717,306042205.77755257
2,6, 3, 6, 0,12, 0.00,60.00,Friday
60,313190942.0412895
96,93124323.85391505
513,174055806.61631225
1717,313190942.0412895
2,6, 3, 6, 0,13, 0.00,60.00,Friday
60,317096649.73105189
96,93124323.85391505
513,177667514.30607493
1717,317096649.73105189
2,6, 3, 6, 0,14, 0.00,60.00,Friday
60,319408870.8154265
96,93124323.85391505
513,179858086.83609239
1717,319408870.81542649
2,6, 3, 6, 0,15, 0.00,60.00,Friday
60,306379130.322472
96,93124323.85391505
513,167093070.3525762
1717,306379130.322472
2,6, 3, 6, 0,16, 0.00,60.00,Friday
60,306302085.7012626
96,93588203.77762437
513,167093070.3525762
1717,306302085.7012626
2,6, 3, 6, 0,17, 0.00,60.00,Friday
60,321171102.750736
96,97977116.43149397
513,177537174.74818046
1717,321171102.75073608
2,6, 3, 6, 0,18, 0.00,60.00,Friday
60,257218815.50165678
96,63792454.357429999
513,140923939.57316477
1717,257218815.50165678
2,6, 3, 6, 0,19, 0.00,60.00,Friday
60,159758592.4245577
96,39455915.8435987
513,69106004.40578471
1717,159758592.42455767
2,6, 3, 6, 0,20, 0.00,60.00,Friday
60,144518256.49739529
96,39455915.8435987
513,59822356.054136309
1717,144518256.49739529
2,6, 3, 6, 0,21, 0.00,60.00,Friday
60,117640745.15364117
96,26303943.895732464
513,59822356.054136309
1717,117640745.15364117
2,6, 3, 6, 0,22, 0.00,60.00,Friday
60,92786985.64250234
96,26303943.895732464
513,55180531.87831209
1717,92786985.64250234
2,6, 3, 6, 0,23, 0.00,60.00,Friday
60,89838598.30140129
96,13151971.947866232
513,55180531.87831209
1717,89838598.30140129
2,6, 3, 6, 0,24, 0.00,60.00,Friday
60,82488642.72209509
96,6575985.973933116
513,55180531.87831209
1717,82488642.72209509
2,7, 3, 7, 0, 1, 0.00,60.00,Saturday
60,63060388.19887163
96,7625873.53771374
513,33399901.50135806
1717,63060388.19887162
2,7, 3, 7, 0, 2, 0.00,60.00,Saturday
60,62696378.0673293
96,7625873.53771374
513,33399901.50135806
1717,62696378.0673293
2,7, 3, 7, 0, 3, 0.00,60.00,Saturday
60,64002327.409617718
96,7625873.53771374
513,33399901.50135806
1717,64002327.409617718
2,7, 3, 7, 0, 4, 0.00,60.00,Saturday
60,52788783.32902186
96,7625873.53771374
513,33399901.50135806
1717,52788783.329021859
2,7, 3, 7, 0, 5, 0.00,60.00,Saturday
60,61336428.725040849
96,7625873.53771374
513,33399901.50135806
1717,61336428.725040849
2,7, 3, 7, 0, 6, 0.00,60.00,Saturday
60,64702307.146533098
96,7625873.53771374
513,33399901.50135806
1717,64702307.146533098
2,7, 3, 7, 0, 7, 0.00,60.00,Saturday
60,75728028.47384097
96,13049136.727071193
513,55180531.87831209
1717,75728028.47384097
2,7, 3, 7, 0, 8, 0.00,60.00,Saturday
60,87915893.73489352
96,11482176.600250042
513,73747828.58160886
1717,87915893.73489352
2,7, 3, 7, 0, 9, 0.00,60.00,Saturday
60,118570786.53292285
96,32858757.33273267
513,85222049.46327478
1717,118570786.53292285
2,7, 3, 7, 0,10, 0.00,60.00,Saturday
60,145970226.85981579
96,31258627.88889564
513,93345241.770967
1717,145970226.85981579
2,7, 3, 7, 0,11, 0.00,60.00,Saturday
60,147068201.2910269
96,31041441.28463835
513,89863873.63909899
1717,147068201.2910269
2,7, 3, 7, 0,12, 0.00,60.00,Saturday
60,155191393.59871919
96,31041441.28463835
513,97987065.9467912
1717,155191393.59871919
2,7, 3, 7, 0,13, 0.00,60.00,Saturday
60,95586080.76298443
96,15520720.642319175
513,72652542.31660007
1717,95586080.76298443
2,7, 3, 7, 0,14, 0.00,60.00,Saturday
60,78889614.60727088
96,15520720.642319175
513,63368893.96495164
1717,78889614.60727088
2,7, 3, 7, 0,15, 0.00,60.00,Saturday
60,73087334.38749072
96,15520720.642319175
513,57566613.74517154
1717,73087334.38749072
2,7, 3, 7, 0,16, 0.00,60.00,Saturday
60,68518982.93455573
96,15594193.365208492
513,52924789.56934732
1717,68518982.93455574
2,7, 3, 7, 0,17, 0.00,60.00,Saturday
60,76040587.34155752
96,16365574.753727407
513,54085245.613303299
1717,76040587.34155752
2,7, 3, 7, 0,18, 0.00,60.00,Saturday
60,69261878.84363652
96,6438688.406689378
513,48348135.17247038
1717,69261878.8436365
2,7, 3, 7, 0,19, 0.00,60.00,Saturday
60,74602470.80485548
96,6575985.973933116
513,41385398.908734139
1717,74602470.80485548
2,7, 3, 7, 0,20, 0.00,60.00,Saturday
60,59405991.09280244
96,7625873.53771374
513,33399901.50135806
1717,59405991.09280244
2,7, 3, 7, 0,21, 0.00,60.00,Saturday
60,56666102.539767939
96,7625873.53771374
513,33399901.50135806
1717,56666102.539767939
2,7, 3, 7, 0,22, 0.00,60.00,Saturday
60,61783889.77737938
96,7625873.53771374
513,33399901.50135806
1717,61783889.77737937
2,7, 3, 7, 0,23, 0.00,60.00,Saturday
60,64789768.1988716
96,7625873.53771374
513,33399901.50135806
1717,64789768.19887159
2,7, 3, 7, 0,24, 0.00,60.00,Saturday
60,61607899.90892166
96,7625873.53771374
513,33399901.50135806
1717,61607899.90892165
2,8, 3, 8, 1, 1, 0.00,60.00,Sunday
60,57574580.69817556
96,7625873.53771374
513,33399901.50135806
1717,57574580.69817556
2,8, 3, 8, 1, 2, 0.00,60.00,Sunday
60,63366357.80424465
96,7625873.53771374
513,33399901.50135806
1717,63366357.804244648
2,8, 3, 8, 1, 3, 0.00,60.00,Sunday
60,59896489.514294769
96,7625873.53771374
513,33399901.50135806
1717,59896489.51429476
2,8, 3, 8, 1, 4, 0.00,60.00,Sunday
60,63086378.0673293
96,7625873.53771374
513,33399901.50135806
1717,63086378.067329298
2,8, 3, 8, 1, 5, 0.00,60.00,Sunday
60,62952388.198871579
96,7625873.53771374
513,33399901.50135806
1717,62952388.198871579
2,8, 3, 8, 1, 6, 0.00,60.00,Sunday
60,77318359.35789012
96,6575985.973933116
513,41385398.908734139
1717,77318359.35789012
2,8, 3, 8, 1, 7, 0.00,60.00,Sunday
60,65019234.439398888
96,6356271.055441855
513,41385398.908734139
1717,65019234.439398888
2,8, 3, 8, 1, 8, 0.00,60.00,Sunday
60,49958971.971640948
96,5427704.772956969
513,41385398.908734139
1717,49958971.971640948
2,8, 3, 8, 1, 9, 0.00,60.00,Sunday
60,56344527.19838909
96,5222275.062600507
513,41385398.908734139
1717,56344527.19838909
2,8, 3, 8, 1,10, 0.00,60.00,Sunday
60,75235767.6395825
96,5173573.547439724
513,41385398.908734139
1717,75235767.6395825
2,8, 3, 8, 1,11, 0.00,60.00,Sunday
60,75301767.63958252
96,5173573.547439724
513,41385398.908734139
1717,75301767.63958252
2,8, 3, 8, 1,12, 0.00,60.00,Sunday
60,73323848.691921
96,5173573.547439724
513,41385398.908734139
1717,73323848.691921
2,8, 3, 8, 1,13, 0.00,60.00,Sunday
60,73081858.8234633
96,5173573.547439724
513,41385398.908734139
1717,73081858.8234633
2,8, 3, 8, 1,14, 0.00,60.00,Sunday
60,73405858.8234633
96,5173573.547439724
513,41385398.908734139
1717,73405858.8234633
2,8, 3, 8, 1,15, 0.00,60.00,Sunday
60,73225858.8234633
96,5173573.547439724
513,41385398.908734139
1717,73225858.8234633
2,8, 3, 8, 1,16, 0.00,60.00,Sunday
60,73615690.78615189
96,5215405.510128328
513,41385398.908734139
1717,73615690.78615189
2,8, 3, 8, 1,17, 0.00,60.00,Sunday
60,75248584.1466354
96,5380379.922950344
513,41385398.908734139
1717,75248584.1466354
2,8, 3, 8, 1,18, 0.00,60.00,Sunday
60,60966123.02079525
96,7265088.008420224
513,33399901.50135806
1717,60966123.020795259
2,8, 3, 8, 1,19, 0.00,60.00,Sunday
60,61517899.908921647
96,7625873.53771374
513,33399901.50135806
1717,61517899.90892164
2,8, 3, 8, 1,20, 0.00,60.00,Sunday
60,63223828.98812547
96,7625873.53771374
513,33399901.50135806
1717,63223828.988125469