Program Version,EnergyPlus, Version 9.4.0-998c4b761e, YMD=2021.06.28 17:32
1,5,Environment Title[],Latitude[deg],Longitude[deg],Time Zone[],Elevation[m]
2,8,Day of Simulation[],Month[],Day of Month[],DST Indicator[1=yes 0=no],Hour[],StartMinute[],EndMinute[],DayType
3,5,Cumulative Day of Simulation[],Month[],Day of Month[],DST Indicator[1=yes 0=no],DayType  ! When Daily Meters Requested
4,2,Cumulative Days of Simulation[],Month[]  ! When Monthly Meters Requested
5,1,Cumulative Days of Simulation[] ! When Run Period Meters Requested
6,1,Calendar Year of Simulation[] ! When Annual Meters Requested
59,1,Electricity:Facility [J] !Hourly
1732,1,ElectricityNet:Facility [J] !Hourly
95,1,InteriorLights:Electricity [J] !Hourly
512,1,InteriorEquipment:Electricity [J] !Hourly
End of Data Dictionary
1,ATLANTA-HARTSFIELD.JACKSON.INTL.AP_GA_USA ANN HTG 99.6% CONDNS DB,  41.98, -87.92,  -6.00, 201.00
2,1, 1,21, 0, 1, 0.00,60.00,WinterDesignDay
59,29851803.10897668
95,0.0
512,0.0
1732,29851803.10897668
2,1, 1,21, 0, 2, 0.00,60.00,WinterDesignDay
59,29905803.10897668
95,0.0
512,0.0
1732,29905803.10897668
2,1, 1,21, 0, 3, 0.00,60.00,WinterDesignDay
59,29905803.10897668
95,0.0
512,0.0
1732,29905803.10897668
2,1, 1,21, 0, 4, 0.00,60.00,WinterDesignDay
59,29851803.10897668
95,0.0
512,0.0
1732,29851803.10897668
2,1, 1,21, 0, 5, 0.00,60.00,WinterDesignDay
59,29863803.10897668
95,0.0
512,0.0
1732,29863803.10897668
2,1, 1,21, 0, 6, 0.00,60.00,WinterDesignDay
59,29863803.10897668
95,0.0
512,0.0
1732,29863803.10897668
2,1, 1,21, 0, 7, 0.00,60.00,WinterDesignDay
59,39588063.10897667
95,0.0
512,0.0
1732,39588063.10897667
2,1, 1,21, 0, 8, 0.00,60.00,WinterDesignDay
59,27126273.108976678
95,0.0
512,0.0
1732,27126273.108976678
2,1, 1,21, 0, 9, 0.00,60.00,WinterDesignDay
59,21186663.1089767
95,0.0
512,0.0
1732,21186663.1089767
2,1, 1,21, 0,10, 0.00,60.00,WinterDesignDay
59,21204663.1089767
95,0.0
512,0.0
1732,21204663.1089767
2,1, 1,21, 0,11, 0.00,60.00,WinterDesignDay
59,21132663.1089767
95,0.0
512,0.0
1732,21132663.1089767
2,1, 1,21, 0,12, 0.00,60.00,WinterDesignDay
59,21144663.1089767
95,0.0
512,0.0
1732,21144663.1089767
2,1, 1,21, 0,13, 0.00,60.00,WinterDesignDay
59,21246663.1089767
95,0.0
512,0.0
1732,21246663.1089767
2,1, 1,21, 0,14, 0.00,60.00,WinterDesignDay
59,21252663.1089767
95,0.0
512,0.0
1732,21252663.1089767
2,1, 1,21, 0,15, 0.00,60.00,WinterDesignDay
59,21138663.1089767
95,0.0
512,0.0
1732,21138663.1089767
2,1, 1,21, 0,16, 0.00,60.00,WinterDesignDay
59,21222663.1089767
95,0.0
512,0.0
1732,21222663.1089767
2,1, 1,21, 0,17, 0.00,60.00,WinterDesignDay
59,25603323.1089767
95,0.0
512,0.0
1732,25603323.1089767
2,1, 1,21, 0,18, 0.00,60.00,WinterDesignDay
59,40038063.10897667
95,0.0
512,0.0
1732,40038063.10897667
2,1, 1,21, 0,19, 0.00,60.00,WinterDesignDay
59,40746063.10897667
95,0.0
512,0.0
1732,40746063.10897667
2,1, 1,21, 0,20, 0.00,60.00,WinterDesignDay
59,32379183.108976678
95,0.0
512,0.0
1732,32379183.108976678
2,1, 1,21, 0,21, 0.00,60.00,WinterDesignDay
59,32379183.108976678
95,0.0
512,0.0
1732,32379183.108976678
2,1, 1,21, 0,22, 0.00,60.00,WinterDesignDay
59,32373183.108976678
95,0.0
512,0.0
1732,32373183.108976678
2,1, 1,21, 0,23, 0.00,60.00,WinterDesignDay
59,32409183.108976678
95,0.0
512,0.0
1732,32409183.108976678
2,1, 1,21, 0,24, 0.00,60.00,WinterDesignDay
59,32403183.108976678
95,0.0
512,0.0
1732,32403183.108976678
1,ATLANTA-HARTSFIELD.JACKSON.INTL.AP_GA_USA ANN CLG .4% CONDNS DB=>MWB,  41.98, -87.92,  -6.00, 201.00
2,1, 7,21, 0, 1, 0.00,60.00,SummerDesignDay
59,420344752.782948
95,152517470.7542746
512,224813060.55296675
1732,420344752.782948
2,1, 7,21, 0, 2, 0.00,60.00,SummerDesignDay
59,420434752.782948
95,152517470.7542746
512,224813060.55296675
1732,420434752.782948
2,1, 7,21, 0, 3, 0.00,60.00,SummerDesignDay
59,420428752.782948
95,152517470.7542746
512,224813060.55296675
1732,420428752.782948
2,1, 7,21, 0, 4, 0.00,60.00,SummerDesignDay
59,420428752.782948
95,152517470.7542746
512,224813060.55296675
1732,420428752.782948
2,1, 7,21, 0, 5, 0.00,60.00,SummerDesignDay
59,416760959.96457406
95,151903095.9359005
512,224813060.55296675
1732,416760959.96457406
2,1, 7,21, 0, 6, 0.00,60.00,SummerDesignDay
59,389367863.32903149
95,128071818.04907707
512,224813060.55296675
1732,389367863.3290314
2,1, 7,21, 0, 7, 0.00,60.00,SummerDesignDay
59,383971822.6847361
95,120497854.10498229
512,224813060.55296675
1732,383971822.684736
2,1, 7,21, 0, 8, 0.00,60.00,SummerDesignDay
59,386995829.1571753
95,119991185.40467149
512,224813060.55296675
1732,386995829.1571753
2,1, 7,21, 0, 9, 0.00,60.00,SummerDesignDay
59,386929869.7287346
95,119991185.40467149
512,224813060.55296675
1732,386929869.7287346
2,1, 7,21, 0,10, 0.00,60.00,SummerDesignDay
59,387374780.6644544
95,119991185.40467149
512,224813060.55296675
1732,387374780.6644543
2,1, 7,21, 0,11, 0.00,60.00,SummerDesignDay
59,387627436.1833438
95,119991185.40467149
512,224813060.55296675
1732,387627436.1833438
2,1, 7,21, 0,12, 0.00,60.00,SummerDesignDay
59,387463486.26403829
95,119991185.40467149
512,224813060.55296675
1732,387463486.26403829
2,1, 7,21, 0,13, 0.00,60.00,SummerDesignDay
59,387691682.9409516
95,119991185.40467149
512,224813060.55296675
1732,387691682.9409516
2,1, 7,21, 0,14, 0.00,60.00,SummerDesignDay
59,388461719.8537249
95,119991185.40467149
512,224813060.55296675
1732,388461719.8537248
2,1, 7,21, 0,15, 0.00,60.00,SummerDesignDay
59,388858596.10277119
95,119991185.40467149
512,224813060.55296675
1732,388858596.10277119
2,1, 7,21, 0,16, 0.00,60.00,SummerDesignDay
59,388560472.51275387
95,119991185.40467149
512,224813060.55296675
1732,388560472.51275387
2,1, 7,21, 0,17, 0.00,60.00,SummerDesignDay
59,387659795.74251165
95,119991185.40467149
512,224813060.55296675
1732,387659795.7425116
2,1, 7,21, 0,18, 0.00,60.00,SummerDesignDay
59,387236150.9875639
95,120633945.22274417
512,224813060.55296675
1732,387236150.9875639
2,1, 7,21, 0,19, 0.00,60.00,SummerDesignDay
59,395954804.0961723
95,130861359.31742129
512,224813060.55296675
1732,395954804.0961722
2,1, 7,21, 0,20, 0.00,60.00,SummerDesignDay
59,424219136.1611853
95,152399856.5668155
512,224813060.55296675
1732,424219136.1611853
2,1, 7,21, 0,21, 0.00,60.00,SummerDesignDay
59,427391656.682817
95,152517470.7542746
512,224813060.55296675
1732,427391656.6828169
2,1, 7,21, 0,22, 0.00,60.00,SummerDesignDay
59,427474197.96906879
95,152517470.7542746
512,224813060.55296675
1732,427474197.96906879
2,1, 7,21, 0,23, 0.00,60.00,SummerDesignDay
59,423880132.782948
95,152517470.7542746
512,224813060.55296675
1732,423880132.782948
2,1, 7,21, 0,24, 0.00,60.00,SummerDesignDay
59,423190132.782948
95,152517470.7542746
512,224813060.55296675
1732,423190132.782948
1,RUNPERIOD 1,  41.98, -87.92,  -6.00, 201.00
2,1, 6, 1, 0, 1, 0.00,60.00,Monday
59,79079664.0302188
95,7625873.53771374
512,44533202.00181081
1732,79079664.0302188
2,1, 6, 1, 0, 2, 0.00,60.00,Monday
59,70244021.89179291
95,7625873.53771374
512,44533202.00181081
1732,70244021.89179291
2,1, 6, 1, 0, 3, 0.00,60.00,Monday
59,68935775.571029
95,7625873.53771374
512,44533202.00181081
1732,68935775.571029
2,1, 6, 1, 0, 4, 0.00,60.00,Monday
59,72424432.42639934
95,7625873.53771374
512,44533202.00181081
1732,72424432.42639934
2,1, 6, 1, 0, 5, 0.00,60.00,Monday
59,67295338.17199208
95,7591463.283306486
512,44533202.00181081
1732,67295338.17199208
2,1, 6, 1, 0, 6, 0.00,60.00,Monday
59,73703329.67439091
95,13781253.930334909
512,44533202.00181081
1732,73703329.67439091
2,1, 6, 1, 0, 7, 0.00,60.00,Monday
59,92431616.69802343
95,10642158.404433685
512,55180531.87831209
1732,92431616.69802343
2,1, 6, 1, 0, 8, 0.00,60.00,Monday
59,159151877.7734421
95,31063997.337583778
512,95796493.41677362
1732,159151877.77344207
2,1, 6, 1, 0, 9, 0.00,60.00,Monday
59,333413733.96150186
95,93124323.85391505
512,204227663.7591696
1732,333413733.96150186
2,1, 6, 1, 0,10, 0.00,60.00,Monday
59,303609202.5532231
95,93124323.85391505
512,174055806.61631225
1732,303609202.5532231
2,1, 6, 1, 0,11, 0.00,60.00,Monday
59,296607793.6464896
95,93124323.85391505
512,167093070.3525762
1732,296607793.64648959
2,1, 6, 1, 0,12, 0.00,60.00,Monday
59,304208370.42367836
95,93124323.85391505
512,174055806.61631225
1732,304208370.42367836
2,1, 6, 1, 0,13, 0.00,60.00,Monday
59,306864505.66750976
95,93124323.85391505
512,177667514.30607493
1732,306864505.66750976
2,1, 6, 1, 0,14, 0.00,60.00,Monday
59,310222246.4314305
95,93124323.85391505
512,179858086.83609239
1732,310222246.43143048
2,1, 6, 1, 0,15, 0.00,60.00,Monday
59,298008873.0924821
95,93124323.85391505
512,167093070.3525762
1732,298008873.0924821
2,1, 6, 1, 0,16, 0.00,60.00,Monday
59,298123436.4343025
95,93124323.85391505
512,167093070.3525762
1732,298123436.4343025
2,1, 6, 1, 0,17, 0.00,60.00,Monday
59,310067967.21131059
95,93312593.52151679
512,177537174.74818046
1732,310067967.21131059
2,1, 6, 1, 0,18, 0.00,60.00,Monday
59,230169113.996753
95,52916249.32147222
512,140923939.57316477
1732,230169113.996753
2,1, 6, 1, 0,19, 0.00,60.00,Monday
59,136450588.64411963
95,34101110.27107747
512,69106004.40578471
1732,136450588.64411963
2,1, 6, 1, 0,20, 0.00,60.00,Monday
59,139169597.01622427
95,39152827.48638166
512,59822356.054136309
1732,139169597.01622427
2,1, 6, 1, 0,21, 0.00,60.00,Monday
59,128589901.4255753
95,26303943.895732464
512,59822356.054136309
1732,128589901.4255753
2,1, 6, 1, 0,22, 0.00,60.00,Monday
59,113454854.7993453
95,26303943.895732464
512,55180531.87831209
1732,113454854.7993453
2,1, 6, 1, 0,23, 0.00,60.00,Monday
59,106253950.2414557
95,13151971.947866232
512,55180531.87831209
1732,106253950.2414557
2,1, 6, 1, 0,24, 0.00,60.00,Monday
59,99593964.26752277
95,6575985.973933116
512,55180531.87831209
1732,99593964.26752277
2,2, 6, 2, 0, 1, 0.00,60.00,Tuesday
59,87181141.95480199
95,7625873.53771374
512,44533202.00181081
1732,87181141.95480199
2,2, 6, 2, 0, 2, 0.00,60.00,Tuesday
59,86905141.95480199
95,7625873.53771374
512,44533202.00181081
1732,86905141.95480199
2,2, 6, 2, 0, 3, 0.00,60.00,Tuesday
59,86917141.95480199
95,7625873.53771374
512,44533202.00181081
1732,86917141.95480199
2,2, 6, 2, 0, 4, 0.00,60.00,Tuesday
59,86899141.95480199
95,7625873.53771374
512,44533202.00181081
1732,86899141.95480199
2,2, 6, 2, 0, 5, 0.00,60.00,Tuesday
59,81422476.79570709
95,7391411.3786188079
512,44533202.00181081
1732,81422476.79570709
2,2, 6, 2, 0, 6, 0.00,60.00,Tuesday
59,83734824.16608337
95,12466695.748995169
512,44533202.00181081
1732,83734824.16608337
2,2, 6, 2, 0, 7, 0.00,60.00,Tuesday
59,93963593.1525113
95,10422134.858921607
512,55180531.87831209
1732,93963593.1525113
2,2, 6, 2, 0, 8, 0.00,60.00,Tuesday
59,160168379.5463755
95,31041441.28463835
512,95796493.41677362
1732,160168379.5463755
2,2, 6, 2, 0, 9, 0.00,60.00,Tuesday
59,333356428.0951783
95,93124323.85391505
512,204227663.7591696
1732,333356428.0951783
2,2, 6, 2, 0,10, 0.00,60.00,Tuesday
59,303695131.6308379
95,93124323.85391505
512,174055806.61631225
1732,303695131.6308379
2,2, 6, 2, 0,11, 0.00,60.00,Tuesday
59,296761381.3014698
95,93124323.85391505
512,167093070.3525762
1732,296761381.3014699
2,2, 6, 2, 0,12, 0.00,60.00,Tuesday
59,303848501.9748872
95,93124323.85391505
512,174055806.61631225
1732,303848501.9748872
2,2, 6, 2, 0,13, 0.00,60.00,Tuesday
59,307773857.1508888
95,93124323.85391505
512,177667514.30607493
1732,307773857.1508887
2,2, 6, 2, 0,14, 0.00,60.00,Tuesday
59,310225592.358739
95,93124323.85391505
512,179858086.83609239
1732,310225592.3587389
2,2, 6, 2, 0,15, 0.00,60.00,Tuesday
59,297132636.1485588
95,93124323.85391505
512,167093070.3525762
1732,297132636.1485588
2,2, 6, 2, 0,16, 0.00,60.00,Tuesday
59,297056724.6344108
95,93133991.36789204
512,167093070.3525762
1732,297056724.6344108
2,2, 6, 2, 0,17, 0.00,60.00,Tuesday
59,308220352.3392878
95,93559746.61659938
512,177537174.74818046
1732,308220352.3392878
2,2, 6, 2, 0,18, 0.00,60.00,Tuesday
59,228275306.9716063
95,52740507.402017209
512,140923939.57316477
1732,228275306.9716063
2,2, 6, 2, 0,19, 0.00,60.00,Tuesday
59,135499111.50038249
95,34330025.61889131
512,69106004.40578471
1732,135499111.50038249
2,2, 6, 2, 0,20, 0.00,60.00,Tuesday
59,138752359.95576043
95,39225532.42591783
512,59822356.054136309
1732,138752359.95576043
2,2, 6, 2, 0,21, 0.00,60.00,Tuesday
59,128589901.4255753
95,26303943.895732464
512,59822356.054136309
1732,128589901.4255753
2,2, 6, 2, 0,22, 0.00,60.00,Tuesday
59,119531922.1893221
95,26303943.895732464
512,55180531.87831209
1732,119531922.1893221
2,2, 6, 2, 0,23, 0.00,60.00,Tuesday
59,106679950.2414557
95,13151971.947866232
512,55180531.87831209
1732,106679950.2414557
2,2, 6, 2, 0,24, 0.00,60.00,Tuesday
59,100037964.26752277
95,6575985.973933116
512,55180531.87831209
1732,100037964.26752277
End of Data
 Number of Records Written=         384
