Program Version,EnergyPlus, Version 9.3.0-baff08990c, YMD=2021.12.09 05:24
1,5,Environment Title[],Latitude[deg],Longitude[deg],Time Zone[],Elevation[m]
2,8,Day of Simulation[],Month[],Day of Month[],DST Indicator[1=yes 0=no],Hour[],StartMinute[],EndMinute[],DayType
3,5,Cumulative Day of Simulation[],Month[],Day of Month[],DST Indicator[1=yes 0=no],DayType  ! When Daily Report Variables Requested
4,2,Cumulative Days of Simulation[],Month[]  ! When Monthly Report Variables Requested
5,1,Cumulative Days of Simulation[] ! When Run Period Report Variables Requested
6,1,Calendar Year of Simulation[] ! When Annual Report Variables Requested
1140,1,CORNER_CLASS_1_POD_1_ZN_1_FLR_1,Zone Mean Air Temperature [C] !Hourly
1141,1,MULT_CLASS_1_POD_1_ZN_1_FLR_1,Zone Mean Air Temperature [C] !Hourly
1142,1,CORRIDOR_POD_1_ZN_1_FLR_1,Zone Mean Air Temperature [C] !Hourly
1143,1,CORNER_CLASS_2_POD_1_ZN_1_FLR_1,Zone Mean Air Temperature [C] !Hourly
1144,1,MULT_CLASS_2_POD_1_ZN_1_FLR_1,Zone Mean Air Temperature [C] !Hourly
2426,1,CORNER_CLASS_1_POD_1_ZN_1_FLR_1_LOTEMP,Zone Radiant HVAC Pump Electric Power [W] !Hourly
2468,1,MULT_CLASS_1_POD_1_ZN_1_FLR_1_LOTEMP,Zone Radiant HVAC Pump Electric Power [W] !Hourly
2474,1,CORRIDOR_POD_1_ZN_1_FLR_1_LOTEMP,Zone Radiant HVAC Pump Electric Power [W] !Hourly
2480,1,CORNER_CLASS_2_POD_1_ZN_1_FLR_1_LOTEMP,Zone Radiant HVAC Pump Electric Power [W] !Hourly
2486,1,MULT_CLASS_2_POD_1_ZN_1_FLR_1_LOTEMP,Zone Radiant HVAC Pump Electric Power [W] !Hourly
2656,1,COOLSYS1 CHILLER1,Chiller Electric Power [W] !Hourly
2758,1,CHILLED WATER LOOP CHW SUPPLY PUMP2,Pump Electric Energy [J] !Hourly
End of Data Dictionary
1,RUNPERIOD 1,  40.78, -73.97,  -5.00,  40.00
2,1, 7, 1, 1, 1, 0.00,60.00,Sunday
1140,22.871367580224537
1141,22.96552884639841
1142,22.69557857641382
1143,22.86378724515959
1144,22.965593539967043
2426,0.0
2468,0.0
2474,0.0
2480,0.0
2486,0.0
2656,0.0
2758,0.0
2,1, 7, 1, 1, 2, 0.00,60.00,Sunday
1140,22.868368911438503
1141,22.971382082967027
1142,22.67445861487538
1143,22.86968141542216
1144,22.984027804739115
2426,0.0
2468,0.0
2474,0.0
2480,0.0
2486,0.0
2656,0.0
2758,0.0
2,1, 7, 1, 1, 3, 0.00,60.00,Sunday
1140,22.86384058977909
1141,22.985539837445626
1142,22.677719329657675
1143,22.87036334077279
1144,23.005432046450247
2426,0.0
2468,0.0
2474,0.0
2480,0.0
2486,0.0
2656,0.0
2758,0.0
2,1, 7, 1, 1, 4, 0.00,60.00,Sunday
1140,22.807576694211197
1141,22.962097851194188
1142,22.666130704838513
1143,22.822937675580083
1144,22.993628362102567
2426,100.0
2468,100.0
2474,100.0
2480,100.0
2486,100.0
2656,11921.254752308138
2758,5129124.502233682
2,1, 7, 1, 1, 5, 0.00,60.00,Sunday
1140,22.64682865482161
1141,22.856224321164129
1142,22.599089287147096
1143,22.67876629642165
1144,22.90860671732765
2426,0.0
2468,0.0
2474,0.0
2480,0.0
2486,0.0
2656,0.0
2758,0.0
2,1, 7, 1, 1, 6, 0.00,60.00,Sunday
1140,22.569138962586658
1141,22.801050937284754
1142,22.560902258704766
1143,22.61628063148111
1144,22.864400655882255
2426,100.0
2468,100.0
2474,100.0
2480,100.0
2486,100.0
2656,16231.242397375743
2758,5129124.502233682
2,1, 7, 1, 1, 7, 0.00,60.00,Sunday
1140,21.40804167152281
1141,21.56644095261938
1142,21.544805089306374
1143,21.47841971939385
1144,21.63845907902945
2426,15.0
2468,20.0
2474,15.0
2480,15.0
2486,25.0
2656,10113.287911494677
2758,5129124.502233682
2,1, 7, 1, 1, 8, 0.00,60.00,Sunday
1140,21.256937257437529
1141,21.288512180038546
1142,21.25805717667017
1143,21.32484136867837
1144,21.339151296320954
2426,0.0
2468,0.0
2474,0.0
2480,0.0
2486,0.0
2656,6917.119945922148
2758,5129124.502233682
2,1, 7, 1, 1, 9, 0.00,60.00,Sunday
1140,21.569340282022539
1141,21.506345744402183
1142,21.286998081029325
1143,21.574330252612758
1144,21.48394836813979
2426,0.0
2468,0.0
2474,0.0
2480,0.0
2486,0.0
2656,6951.954821410218
2758,5129124.502233682
2,1, 7, 1, 1,10, 0.00,60.00,Sunday
1140,21.9691689571026
1141,21.806718671975266
1142,21.400883790741589
1143,21.895647468597553
1144,21.6940574054625
2426,40.0
2468,0.0
2474,0.0
2480,10.0
2486,0.0
2656,7502.200829207324
2758,5129124.502233682
2,1, 7, 1, 1,11, 0.00,60.00,Sunday
1140,22.22248147964178
1141,22.077594906154958
1142,21.544878662989257
1143,22.121120464395334
1144,21.873497494448594
2426,100.0
2468,75.0
2474,0.0
2480,100.0
2486,0.0
2656,11004.011288353135
2758,5129124.502233682
2,1, 7, 1, 1,12, 0.00,60.00,Sunday
1140,22.404416824849986
1141,22.27854893076828
1142,21.685992337944506
1143,22.243490470455279
1144,22.0431354585868
2426,0.0
2468,0.0
2474,0.0
2480,0.0
2486,0.0
2656,7044.241218771192
2758,5129124.502233682
2,1, 7, 1, 1,13, 0.00,60.00,Sunday
1140,22.576231355986854
1141,22.41156349536567
1142,21.77674088213455
1143,22.354972243228159
1144,22.126628566478105
2426,100.0
2468,100.0
2474,0.0
2480,100.0
2486,100.0
2656,19833.861088598114
2758,5129124.502233682
2,1, 7, 1, 1,14, 0.00,60.00,Sunday
1140,22.592375858008564
1141,22.36653768934009
1142,21.824446824979718
1143,22.357059656958833
1144,22.08100011340384
2426,0.0
2468,0.0
2474,0.0
2480,0.0
2486,0.0
2656,7251.633960570805
2758,5129124.502233682
2,1, 7, 1, 1,15, 0.00,60.00,Sunday
1140,22.96930768712412
1141,22.437126686836004
1142,21.929475570461457
1143,22.719997171839134
1144,22.134676131881446
2426,0.0
2468,0.0
2474,0.0
2480,0.0
2486,0.0
2656,7095.326853818221
2758,5129124.502233682
2,1, 7, 1, 1,16, 0.00,60.00,Sunday
1140,23.38491438010974
1141,22.424614877049554
1142,22.024336842934205
1143,23.150522989782439
1144,22.127433861362019
2426,0.0
2468,0.0
2474,0.0
2480,0.0
2486,0.0
2656,7074.625731743739
2758,5129124.502233682
2,1, 7, 1, 1,17, 0.00,60.00,Sunday
1140,23.490185070862759
1141,22.29045947221086
1142,22.0361579236357
1143,23.32146368461097
1144,22.064061165599939
2426,0.0
2468,0.0
2474,0.0
2480,0.0
2486,0.0
2656,7074.625731743739
2758,5129124.502233682
2,1, 7, 1, 1,18, 0.00,60.00,Sunday
1140,23.019817985067517
1141,22.08750221305265
1142,21.92494961994955
1143,22.90320910707308
1144,21.9378776887986
2426,0.0
2468,0.0
2474,0.0
2480,0.0
2486,0.0
2656,6789.09286710587
2758,5129124.502233682
2,1, 7, 1, 1,19, 0.00,60.00,Sunday
1140,22.44635037032705
1141,21.874413948968159
1142,21.786811288025125
1143,22.356701865124245
1144,21.78029114187503
2426,0.0
2468,0.0
2474,0.0
2480,0.0
2486,0.0
2656,5164.269334538736
2758,5129124.502233682
2,1, 7, 1, 1,20, 0.00,60.00,Sunday
1140,22.02958928569799
1141,21.694530882572214
1142,21.653011244153729
1143,21.957389612179378
1144,21.629575478046577
2426,0.0
2468,0.0
2474,0.0
2480,0.0
2486,0.0
2656,5511.905388378232
2758,5129124.502233682
2,1, 7, 1, 1,21, 0.00,60.00,Sunday
1140,22.78398573344601
1141,22.603960648767548
1142,22.334718617276839
1143,22.728238297818949
1144,22.54712965731752
2426,0.0
2468,0.0
2474,0.0
2480,0.0
2486,0.0
2656,0.0
2758,0.0
2,1, 7, 1, 1,22, 0.00,60.00,Sunday
1140,23.088891522043136
1141,23.036430232429404
1142,22.647495754722617
1143,23.04449400579544
1144,22.987741008837589
2426,0.0
2468,0.0
2474,0.0
2480,0.0
2486,0.0
2656,0.0
2758,0.0
2,1, 7, 1, 1,23, 0.00,60.00,Sunday
1140,23.086857588550975
1141,23.084731151105048
1142,22.723316702148286
1143,23.048408471085915
1144,23.04484478652799
2426,0.0
2468,0.0
2474,0.0
2480,0.0
2486,0.0
2656,0.0
2758,0.0
2,1, 7, 1, 1,24, 0.00,60.00,Sunday
1140,23.028274351417254
1141,23.074146434446914
1142,22.747818890758077
1143,22.999502814649344
1144,23.047302579702973
2426,100.0
2468,100.0
2474,100.0
2480,100.0
2486,100.0
2656,13553.113685047647
2758,5129124.502233682
2,2, 7, 2, 1, 1, 0.00,60.00,Monday
1140,22.767769570457774
1141,22.910105972113806
1142,22.67266309330416
1143,22.762372590914806
1144,22.913125630580443
2426,100.0
2468,100.0
2474,100.0
2480,100.0
2486,100.0
2656,12143.97756956717
2758,5129124.502233682
2,2, 7, 2, 1, 2, 0.00,60.00,Monday
1140,22.457558265285976
1141,22.695710799038083
1142,22.539543321322726
1143,22.473670853159047
1144,22.72863354220225
2426,100.0
2468,100.0
2474,100.0
2480,100.0
2486,100.0
2656,10309.81350724943
2758,5129124.502233682
2,2, 7, 2, 1, 3, 0.00,60.00,Monday
1140,22.16633498253428
1141,22.480957161533149
1142,22.385815484052633
1143,22.196583296824604
1144,22.537311522648169
2426,100.0
2468,100.0
2474,100.0
2480,100.0
2486,100.0
2656,8742.025121997245
2758,5129124.502233682
2,2, 7, 2, 1, 4, 0.00,60.00,Monday
1140,21.933669333342473
1141,22.287341849180636
1142,22.232207365342629
1143,21.965413902599356
1144,22.360976903521196
2426,20.0
2468,100.0
2474,100.0
2480,35.0
2486,100.0
2656,7178.0909398284379
2758,5129124.502233682
2,2, 7, 2, 1, 5, 0.00,60.00,Monday
1140,21.828925452606354
1141,22.127263788276776
1142,22.08860681575557
1143,21.84851678199758
1144,22.212665027271773
2426,0.0
2468,100.0
2474,100.0
2480,0.0
2486,100.0
2656,6997.977291502927
2758,5129124.502233682
2,2, 7, 2, 1, 6, 0.00,60.00,Monday
1140,21.819978874051338
1141,22.015376112007468
1142,21.980036600539955
1143,21.83907607322284
1144,22.106843122578196
2426,0.0
2468,65.0
2474,35.0
2480,0.0
2486,100.0
2656,5509.145727848661
2758,5129124.502233682
2,2, 7, 2, 1, 7, 0.00,60.00,Monday
1140,20.963716216803744
1141,21.000790344538119
1142,21.117328829438596
1143,20.97974837765183
1144,21.06856574070909
2426,0.0
2468,0.0
2474,0.0
2480,0.0
2486,3.333333333333333
2656,4442.987473016666
2758,5129124.502233682
2,2, 7, 2, 1, 8, 0.00,60.00,Monday
1140,21.287856188865477
1141,21.297363663980194
1142,20.948277674429627
1143,21.318210486172057
1144,21.362543077638713
2426,0.0
2468,0.0
2474,0.0
2480,0.0
2486,0.0
2656,4384.465884151623
2758,5129124.502233682
2,2, 7, 2, 1, 9, 0.00,60.00,Monday
1140,21.606085667569
1141,21.622362622599547
1142,20.99678428346092
1143,21.61841122182991
1144,21.67961060997178
2426,0.0
2468,0.0
2474,0.0
2480,0.0
2486,0.0
2656,4721.5310111269559
2758,5129124.502233682
2,2, 7, 2, 1,10, 0.00,60.00,Monday
1140,21.78851620735588
1141,21.76600462035762
1142,21.064347570534616
1143,21.771971487719484
1144,21.79065065937355
2426,0.0
2468,0.0
2474,0.0
2480,0.0
2486,0.0
2656,5155.63603275672
2758,5129124.502233682
2,2, 7, 2, 1,11, 0.00,60.00,Monday
1140,21.994676657211128
1141,21.9181638130545
1142,21.142878254781154
1143,21.956138837385397
1144,21.905799672954286
2426,40.0
2468,5.0
2474,0.0
2480,25.0
2486,0.0
2656,5929.812631742481
2758,5129124.502233682
2,2, 7, 2, 1,12, 0.00,60.00,Monday
1140,22.334823710651074
1141,22.19227225195657
1142,21.28360662175906
1143,22.263150130259029
1144,22.120914277155586
2426,100.0
2468,100.0
2474,0.0
2480,100.0
2486,90.0
2656,9828.930250035377
2758,5129124.502233682
2,2, 7, 2, 1,13, 0.00,60.00,Monday
1140,22.58599400220979
1141,22.407705986726975
1142,21.4617833570558
1143,22.48694617371012
1144,22.295198979700797
2426,100.0
2468,100.0
2474,0.0
2480,100.0
2486,100.0
2656,11017.730317279344
2758,5129124.502233682
2,2, 7, 2, 1,14, 0.00,60.00,Monday
1140,22.506276429205358
1141,22.36708997986859
1142,21.537231654252297
1143,22.43090649238909
1144,22.27770555185329
2426,100.0
2468,100.0
2474,0.0
2480,100.0
2486,100.0
2656,10735.427226246678
2758,5129124.502233682
2,2, 7, 2, 1,15, 0.00,60.00,Monday
1140,22.42748946570678
1141,22.29923015179443
1142,21.53548606750048
1143,22.366399051426297
1144,22.2281437637732
2426,100.0
2468,100.0
2474,0.0
2480,100.0
2486,100.0
2656,10540.455830348086
2758,5129124.502233682
2,2, 7, 2, 1,16, 0.00,60.00,Monday
1140,22.253723888049057
1141,22.182706910148626
1142,21.516605872459615
1143,22.218960956808894
1144,22.147762334123354
2426,100.0
2468,100.0
2474,0.0
2480,100.0
2486,100.0
2656,9970.366626875126
2758,5129124.502233682
2,2, 7, 2, 1,17, 0.00,60.00,Monday
1140,21.848513670760054
1141,21.803839590426049
1142,21.39506393428055
1143,21.833332893230616
1144,21.792548745017
2426,15.0
2468,15.0
2474,0.0
2480,15.0
2486,10.0
2656,6673.037520918508
2758,5129124.502233682
2,2, 7, 2, 1,18, 0.00,60.00,Monday
1140,21.669278909068173
1141,21.642606718117969
1142,21.3095899775821
1143,21.672522510207189
1144,21.657406446860997
2426,0.0
2468,0.0
2474,0.0
2480,0.0
2486,0.0
2656,5908.396757214554
2758,5129124.502233682
2,2, 7, 2, 1,19, 0.00,60.00,Monday
1140,21.526750907334994
1141,21.56463687195011
1142,21.226790349506286
1143,21.548482489459354
1144,21.598629476268714
2426,0.0
2468,0.0
2474,0.0
2480,0.0
2486,0.0
2656,5512.382793961656
2758,5129124.502233682
2,2, 7, 2, 1,20, 0.00,60.00,Monday
1140,21.29245260809464
1141,21.38885307677102
1142,21.08957740924013
1143,21.320062529664477
1144,21.429028887947486
2426,0.0
2468,0.0
2474,0.0
2480,0.0
2486,0.0
2656,5188.589667389674
2758,5129124.502233682
2,2, 7, 2, 1,21, 0.00,60.00,Monday
1140,21.551373213740793
1141,21.806299025053379
1142,21.6850903504757
1143,21.59086718863257
1144,21.866004617778029
2426,0.0
2468,0.0
2474,0.0
2480,0.0
2486,25.0
2656,931.7993817998671
2758,1282281.1255584206
2,2, 7, 2, 1,22, 0.00,60.00,Monday
1140,21.66234037026211
1141,22.00735192817694
1142,21.927802226944356
1143,21.709995707157569
1144,22.06150203048238
2426,0.0
2468,75.0
2474,0.0
2480,0.0
2486,100.0
2656,6089.410651674764
2758,5129124.502233682
2,2, 7, 2, 1,23, 0.00,60.00,Monday
1140,21.66876230835337
1141,21.979920823691793
1142,21.956143611846494
1143,21.717343992802399
1144,22.017277663894967
2426,0.0
2468,25.0
2474,0.0
2480,0.0
2486,80.0
2656,3629.2396903560086
2758,4103299.601786947
2,2, 7, 2, 1,24, 0.00,60.00,Monday
1140,21.639981787192743
1141,21.94354094921003
1142,21.953619595221889
1143,21.68975199734777
1144,21.954227123201677
2426,0.0
2468,0.0
2474,0.0
2480,0.0
2486,0.0
2656,0.0
2758,0.0
2,3, 7, 3, 1, 1, 0.00,60.00,Tuesday
1140,21.622171628256689
1141,21.937088669676933
1142,21.94346289128763
1143,21.67262034217371
1144,21.939395680580487
2426,0.0
2468,0.0
2474,0.0
2480,0.0
2486,0.0
2656,0.0
2758,0.0
2,3, 7, 3, 1, 2, 0.00,60.00,Tuesday
1140,21.619988992778727
1141,21.944180498787156
1142,21.935989736655338
1143,21.671647475396968
1144,21.94581079972621
2426,0.0
2468,0.0
2474,0.0
2480,0.0
2486,0.0
2656,0.0
2758,0.0
2,3, 7, 3, 1, 3, 0.00,60.00,Tuesday
1140,21.600616915934208
1141,21.942349615468449
1142,21.929046474054688
1143,21.652943233403297
1144,21.94494229917107
2426,0.0
2468,0.0
2474,0.0
2480,0.0
2486,0.0
2656,0.0
2758,0.0
2,3, 7, 3, 1, 4, 0.00,60.00,Tuesday
1140,21.622573282282287
1141,21.966421287149094
1142,21.930788060057944
1143,21.676206392604123
1144,21.971058687520036
2426,0.0
2468,0.0
2474,0.0
2480,0.0
2486,0.0
2656,0.0
2758,0.0
2,3, 7, 3, 1, 5, 0.00,60.00,Tuesday
1140,21.62710034412531
1141,21.98148193234399
1142,21.939707013590298
1143,21.681198955973828
1144,21.987527442022903
2426,0.0
2468,0.0
2474,0.0
2480,0.0
2486,0.0
2656,0.0
2758,0.0
2,3, 7, 3, 1, 6, 0.00,60.00,Tuesday
1140,21.664046510088207
1141,22.00730737026615
1142,21.968019111588139
1143,21.723824290882953
1144,22.012103416620538
2426,0.0
2468,55.0
2474,0.0
2480,0.0
2486,70.0
2656,4254.27600555344
2758,3590387.1515635785
2,3, 7, 3, 1, 7, 0.00,60.00,Tuesday
1140,20.95741365734023
1141,21.13061544422869
1142,21.23918165260169
1143,21.016093110748576
1144,21.13306026866514
2426,0.0
2468,1.6666666666666666
2474,0.0
2480,0.0
2486,1.6666666666666666
2656,4983.9424818643869
2758,5129124.502233682
2,3, 7, 3, 1, 8, 0.00,60.00,Tuesday
1140,21.440977352230317
1141,21.523250575346567
1142,21.162223410549964
1143,21.47426377218295
1144,21.517390231182426
2426,0.0
2468,0.0
2474,0.0
2480,0.0
2486,0.0
2656,5008.998786104274
2758,5129124.502233682
2,3, 7, 3, 1, 9, 0.00,60.00,Tuesday
1140,21.94518001067606
1141,21.977958562338015
1142,21.283901889520789
1143,21.945618298511357
1144,21.93338246338873
2426,30.0
2468,35.0
2474,0.0
2480,30.0
2486,15.0
2656,6469.7765637874449
2758,5129124.502233682
2,3, 7, 3, 1,10, 0.00,60.00,Tuesday
1140,22.318983953256379
1141,22.272141926337125
1142,21.455740263616158
1143,22.24662091109844
1144,22.154609296516577
2426,100.0
2468,100.0
2474,0.0
2480,100.0
2486,100.0
2656,11164.241080897697
2758,5129124.502233682
2,3, 7, 3, 1,11, 0.00,60.00,Tuesday
1140,22.63804946493503
1141,22.53519574265275
1142,21.650854925806749
1143,22.49435627097474
1144,22.348143810450279
2426,100.0
2468,100.0
2474,0.0
2480,100.0
2486,100.0
2656,12589.105778725485
2758,5129124.502233682
2,3, 7, 3, 1,12, 0.00,60.00,Tuesday
1140,22.869568007509686
1141,22.72540261625512
1142,21.79873437690138
1143,22.648635905489564
1144,22.45745695871998
2426,100.0
2468,100.0
2474,0.0
2480,100.0
2486,100.0
2656,14334.99497122657
2758,5129124.502233682
2,3, 7, 3, 1,13, 0.00,60.00,Tuesday
1140,23.0108700523415
1141,22.828872545760985
1142,21.90779256720247
1143,22.74762903980718
1144,22.51444530943406
2426,100.0
2468,100.0
2474,0.0
2480,100.0
2486,100.0
2656,15791.9918658393
2758,5129124.502233682
2,3, 7, 3, 1,14, 0.00,60.00,Tuesday
1140,23.1270430396752
1141,22.88142354039569
1142,22.01043620631897
1143,22.85976809575068
1144,22.56394278729227
2426,100.0
2468,100.0
2474,50.0
2480,100.0
2486,100.0
2656,16915.73639550308
2758,5129124.502233682
2,3, 7, 3, 1,15, 0.00,60.00,Tuesday
1140,23.47201612567883
1141,22.947602265601384
1142,22.12258633460342
1143,23.217860171186176
1144,22.631329210117167
2426,100.0
2468,100.0
2474,100.0
2480,100.0
2486,100.0
2656,18894.066656826322
2758,5129124.502233682
2,3, 7, 3, 1,16, 0.00,60.00,Tuesday
1140,23.582534173899384
1141,22.88934481074882
1142,22.157264099594415
1143,23.393807892106218
1144,22.628153670303325
2426,100.0
2468,100.0
2474,100.0
2480,100.0
2486,100.0
2656,19244.701789901108
2758,5129124.502233682
2,3, 7, 3, 1,17, 0.00,60.00,Tuesday
1140,23.0546916720624
1141,22.407458115813748
1142,21.97808105536769
1143,22.964017022599486
1144,22.253118470856785
2426,100.0
2468,100.0
2474,45.0
2480,100.0
2486,100.0
2656,15850.373287633007
2758,5129124.502233682
2,3, 7, 3, 1,18, 0.00,60.00,Tuesday
1140,22.61679827499982
1141,22.0560682785442
1142,21.767004341453167
1143,22.598944407656263
1144,21.99050443556021
2426,100.0
2468,75.0
2474,0.0
2480,100.0
2486,50.0
2656,11575.79822113442
2758,5129124.502233682
2,3, 7, 3, 1,19, 0.00,60.00,Tuesday
1140,22.133211735847636
1141,21.81307903475299
1142,21.57347411629302
1143,22.16895859735877
1144,21.82835848530366
2426,80.0
2468,0.0
2474,0.0
2480,95.0
2486,0.0
2656,7646.682655769029
2758,5129124.502233682
2,3, 7, 3, 1,20, 0.00,60.00,Tuesday
1140,21.664381473902158
1141,21.55525653632562
1142,21.33822914120813
1143,21.71971673175835
1144,21.599547380183773
2426,0.0
2468,0.0
2474,0.0
2480,0.0
2486,0.0
2656,7141.849920109073
2758,5129124.502233682
2,3, 7, 3, 1,21, 0.00,60.00,Tuesday
1140,22.107111234502506
1141,22.21434736398283
1142,22.061824243446134
1143,22.175298244267237
1144,22.298432065894205
2426,75.0
2468,75.0
2474,65.0
2480,80.0
2486,80.0
2656,6835.827158164955
2758,4103299.601786947
2,3, 7, 3, 1,22, 0.00,60.00,Tuesday
1140,22.160224722626205
1141,22.415133371594178
1142,22.30163562429628
1143,22.225674543020824
1144,22.51599329078845
2426,100.0
2468,100.0
2474,100.0
2480,100.0
2486,100.0
2656,8892.886845148298
2758,5129124.502233682
2,3, 7, 3, 1,23, 0.00,60.00,Tuesday
1140,22.024200954387188
1141,22.31356350010893
1142,22.243912195785396
1143,22.083598981358074
1144,22.422958334045636
2426,75.0
2468,100.0
2474,100.0
2480,100.0
2486,100.0
2656,7905.165598058658
2758,5129124.502233682
2,3, 7, 3, 1,24, 0.00,60.00,Tuesday
1140,21.907865666290087
1141,22.189090426500998
1142,22.148695885973774
1143,21.944591708204194
1144,22.303642608246617
2426,0.0
2468,100.0
2474,100.0
2480,20.0
2486,100.0
2656,6981.168183458169
2758,5129124.502233682
2,4, 7, 4, 1, 1, 0.00,60.00,Holiday
1140,21.814752346038003
1141,22.043759923362385
1142,22.031273903053319
1143,21.834388684783929
1144,22.16156128965517
2426,0.0
2468,95.0
2474,80.0
2480,0.0
2486,100.0
2656,6779.391231764205
2758,5129124.502233682
2,4, 7, 4, 1, 2, 0.00,60.00,Holiday
1140,21.779132378458234
1141,21.950314425081488
1142,21.93879806194801
1143,21.79573351667073
1144,22.055300585115483
2426,0.0
2468,0.0
2474,0.0
2480,0.0
2486,100.0
2656,3111.8030690404955
2758,5129124.502233682
2,4, 7, 4, 1, 3, 0.00,60.00,Holiday
1140,21.75086306778354
1141,21.91584451663882
1142,21.88847193190079
1143,21.766350990738255
1144,21.970646342879573
2426,0.0
2468,0.0
2474,0.0
2480,0.0
2486,5.0
2656,154.43185916275895
2758,256456.2251116841
2,4, 7, 4, 1, 4, 0.00,60.00,Holiday
1140,21.773957937804736
1141,21.932532078942587
1142,21.867866042360128
1143,21.78774419672676
1144,21.96635905482522
2426,0.0
2468,0.0
2474,0.0
2480,0.0
2486,0.0
2656,0.0
2758,0.0
2,4, 7, 4, 1, 5, 0.00,60.00,Holiday
1140,21.772819384307995
1141,21.9407527450779
1142,21.860786745341799
1143,21.786308626338135
1144,21.970062750826736
2426,0.0
2468,0.0
2474,0.0
2480,0.0
2486,0.0
2656,0.0
2758,0.0
2,4, 7, 4, 1, 6, 0.00,60.00,Holiday
1140,21.830981146058624
1141,21.97768417710956
1142,21.8786391329486
1143,21.850468582915928
1144,22.005179112907358
2426,0.0
2468,15.0
2474,0.0
2480,0.0
2486,45.0
2656,1967.231253938938
2758,2308106.026005157
2,4, 7, 4, 1, 7, 0.00,60.00,Holiday
1140,20.982212455239205
1141,20.988848125539265
1142,21.026575653550365
1143,21.00846981795598
1144,21.004022331227114
2426,0.0
2468,5.0
2474,0.0
2480,0.0
2486,5.0
2656,6976.802694044457
2758,5129124.502233682
2,4, 7, 4, 1, 8, 0.00,60.00,Holiday
1140,20.931888339923355
1141,20.79336884761593
1142,20.82986531333234
1143,20.940638229567843
1144,20.779899606821755
2426,0.0
2468,0.0
2474,0.0
2480,0.0
2486,0.0
2656,6951.954821410218
2758,5129124.502233682
2,4, 7, 4, 1, 9, 0.00,60.00,Holiday
1140,21.232181935437145
1141,20.986760636963518
1142,20.861320905326076
1143,21.192635313260455
1144,20.913842838096753
2426,0.0
2468,0.0
2474,0.0
2480,0.0
2486,0.0
2656,7023.033506401252
2758,5129124.502233682
2,4, 7, 4, 1,10, 0.00,60.00,Holiday
1140,21.625185936511657
1141,21.27573318313395
1142,20.972403478243426
1143,21.514128074064609
1144,21.12060705299504
2426,0.0
2468,0.0
2474,0.0
2480,0.0
2486,0.0
2656,7149.006053787953
2758,5129124.502233682
2,4, 7, 4, 1,11, 0.00,60.00,Holiday
1140,22.113189133157513
1141,21.664789044200153
1142,21.17230481485609
1143,21.927305336846037
1144,21.422382191066839
2426,70.0
2468,0.0
2474,0.0
2480,30.0
2486,0.0
2656,8222.763829556501
2758,5129124.502233682
2,4, 7, 4, 1,12, 0.00,60.00,Holiday
1140,22.405310661303355
1141,21.972511526100165
1142,21.352916856034704
1143,22.17424614177181
1144,21.63143459397349
2426,100.0
2468,30.0
2474,0.0
2480,100.0
2486,0.0
2656,10308.068077402262
2758,5129124.502233682
2,4, 7, 4, 1,13, 0.00,60.00,Holiday
1140,22.636090353059797
1141,22.20708779369316
1142,21.47631599126894
1143,22.377790738379713
1144,21.8176351547836
2426,100.0
2468,100.0
2474,0.0
2480,100.0
2486,0.0
2656,13020.09297909848
2758,5129124.502233682
2,4, 7, 4, 1,14, 0.00,60.00,Holiday
1140,22.656526555687998
1141,22.2232573868702
1142,21.55720614868922
1143,22.453168640840738
1144,21.933018146479417
2426,100.0
2468,100.0
2474,0.0
2480,100.0
2486,0.0
2656,12994.525616116774
2758,5129124.502233682
2,4, 7, 4, 1,15, 0.00,60.00,Holiday
1140,22.46032347079857
1141,22.062938128667743
1142,21.54364625203537
1143,22.344603329119687
1144,21.933034451640123
2426,100.0
2468,100.0
2474,0.0
2480,100.0
2486,0.0
2656,12233.448883620917
2758,5129124.502233682
2,4, 7, 4, 1,16, 0.00,60.00,Holiday
1140,22.525133030236959
1141,22.002151140055653
1142,21.55417507637668
1143,22.444706858764829
1144,21.965276145471799
2426,100.0
2468,55.0
2474,0.0
2480,100.0
2486,0.0
2656,10797.830191104837
2758,5129124.502233682
2,4, 7, 4, 1,17, 0.00,60.00,Holiday
1140,22.537450398883668
1141,21.938655130447839
1142,21.59391193383785
1143,22.511118953577406
1144,21.991690629043583
2426,100.0
2468,0.0
2474,0.0
2480,100.0
2486,50.0
2656,10555.793381602904
2758,5129124.502233682
2,4, 7, 4, 1,18, 0.00,60.00,Holiday
1140,22.373953769932336
1141,21.8040450873497
1142,21.57409786337974
1143,22.39418739578364
1144,21.902475228793827
2426,100.0
2468,0.0
2474,0.0
2480,100.0
2486,0.0
2656,8607.185866196938
2758,5129124.502233682
2,4, 7, 4, 1,19, 0.00,60.00,Holiday
1140,21.976511387708059
1141,21.6062126709084
1142,21.483363178021855
1143,22.04144371890238
1144,21.769750021716424
2426,50.0
2468,0.0
2474,0.0
2480,65.0
2486,0.0
2656,7656.685168597911
2758,5129124.502233682
2,4, 7, 4, 1,20, 0.00,60.00,Holiday
1140,21.531075323280935
1141,21.395972119716175
1142,21.33814354349314
1143,21.616584900946945
1144,21.607326865746694
2426,0.0
2468,0.0
2474,0.0
2480,0.0
2486,0.0
2656,7219.998795753253
2758,5129124.502233682
2,4, 7, 4, 1,21, 0.00,60.00,Holiday
1140,22.249425267129703
1141,22.41770375794983
1142,22.108240250283865
1143,22.334817901245669
1144,22.662302429412155
2426,75.0
2468,75.0
2474,70.0
2480,80.0
2486,85.0
2656,9544.25707061319
2758,4359755.826898631
2,4, 7, 4, 1,22, 0.00,60.00,Holiday
1140,22.419270412023289
1141,22.78599901777111
1142,22.411334062753285
1143,22.497872645901987
1144,23.033694270519314
2426,100.0
2468,100.0
2474,100.0
2480,100.0
2486,100.0
2656,12093.212160707975
2758,5129124.502233682
2,4, 7, 4, 1,23, 0.00,60.00,Holiday
1140,22.165053607742615
1141,22.61056521323018
1142,22.365928141350115
1143,22.239047196098107
1144,22.857755033720186
2426,100.0
2468,100.0
2474,100.0
2480,100.0
2486,100.0
2656,10369.036212862982
2758,5129124.502233682
2,4, 7, 4, 1,24, 0.00,60.00,Holiday
1140,21.991615423318643
1141,22.438220138137259
1142,22.257774237442996
1143,22.06151298842521
1144,22.681016426593105
2426,50.0
2468,100.0
2474,100.0
2480,85.0
2486,100.0
2656,8325.062205114173
2758,5129124.502233682
2,5, 7, 5, 1, 1, 0.00,60.00,Thursday
1140,21.805596033869926
1141,22.228468474291018
1142,22.122883929548693
1143,21.848025827222807
1144,22.46459985058106
2426,0.0
2468,100.0
2474,100.0
2480,0.0
2486,100.0
2656,6919.59985146558
2758,5129124.502233682
2,5, 7, 5, 1, 2, 0.00,60.00,Thursday
1140,21.654262848526444
1141,22.024949782604545
1142,21.97830530915735
1143,21.687513878313135
1144,22.25188211790698
2426,0.0
2468,70.0
2474,40.0
2480,0.0
2486,100.0
2656,5868.351084885881
2758,5129124.502233682
2,5, 7, 5, 1, 3, 0.00,60.00,Thursday
1140,21.532504973784485
1141,21.875932051398587
1142,21.86547029401804
1143,21.56533034729931
1144,22.063998318988717
2426,0.0
2468,0.0
2474,0.0
2480,0.0
2486,95.0
2656,3060.5467181445048
2758,4872668.277121998
2,5, 7, 5, 1, 4, 0.00,60.00,Thursday
1140,21.448853468329767
1141,21.80544912458486
1142,21.791055183497656
1143,21.480951902162404
1144,21.929597375109286
2426,0.0
2468,0.0
2474,0.0
2480,0.0
2486,0.0
2656,0.0
2758,0.0
2,5, 7, 5, 1, 5, 0.00,60.00,Thursday
1140,21.394967596706218
1141,21.76692012816974
1142,21.741491389506245
1143,21.426172409188316
1144,21.867688232238938
2426,0.0
2468,0.0
2474,0.0
2480,0.0
2486,0.0
2656,0.0
2758,0.0
2,5, 7, 5, 1, 6, 0.00,60.00,Thursday
1140,21.44169451354129
1141,21.7892233964815
1142,21.741754474251345
1143,21.484080178744976
1144,21.88476792715967
2426,0.0
2468,0.0
2474,0.0
2480,0.0
2486,0.0
2656,0.0
2758,0.0
2,5, 7, 5, 1, 7, 0.00,60.00,Thursday
1140,20.738040351268507
1141,20.95381080740942
1142,21.008228136865158
1143,20.798267612189457
1144,21.039129551689937
2426,0.0
2468,0.0
2474,0.0
2480,0.0
2486,0.0
2656,5367.26332156821
2758,5129124.502233682
2,5, 7, 5, 1, 8, 0.00,60.00,Thursday
1140,21.274475352663339
1141,21.388566877554579
1142,20.913102565924459
1143,21.333195725228344
1144,21.465823125163337
2426,0.0
2468,0.0
2474,0.0
2480,0.0
2486,0.0
2656,6233.009223915421
2758,5129124.502233682
2,5, 7, 5, 1, 9, 0.00,60.00,Thursday
1140,21.854522619021759
1141,21.895226793894076
1142,21.08962445040593
1143,21.842900682449586
1144,21.897601838705325
2426,15.0
2468,20.0
2474,0.0
2480,0.0
2486,10.0
2656,6954.244549529352
2758,5129124.502233682
2,5, 7, 5, 1,10, 0.00,60.00,Thursday
1140,22.218088616323674
1141,22.182904033951894
1142,21.2827765412117
1143,22.14141270649032
1144,22.116153395924166
2426,100.0
2468,100.0
2474,0.0
2480,100.0
2486,100.0
2656,11585.299473803072
2758,5129124.502233682
2,5, 7, 5, 1,11, 0.00,60.00,Thursday
1140,22.482935791153225
1141,22.381001873560686
1142,21.442247939930366
1143,22.346790406914129
1144,22.250091071669226
2426,100.0
2468,100.0
2474,0.0
2480,100.0
2486,100.0
2656,13519.392129423399
2758,5129124.502233682
2,5, 7, 5, 1,12, 0.00,60.00,Thursday
1140,22.731012969508389
1141,22.583471701041018
1142,21.594470101391705
1143,22.52425994720727
1144,22.37320814484437
2426,100.0
2468,100.0
2474,0.0
2480,100.0
2486,100.0
2656,14931.390281961692
2758,5129124.502233682
2,5, 7, 5, 1,13, 0.00,60.00,Thursday
1140,22.90855495194842
1141,22.725603262493178
1142,21.7332546586437
1143,22.662402029597048
1144,22.46555987102665
2426,100.0
2468,100.0
2474,0.0
2480,100.0
2486,100.0
2656,15814.725192876524
2758,5129124.502233682
2,5, 7, 5, 1,14, 0.00,60.00,Thursday
1140,23.055543792279189
1141,22.816897895472473
1142,21.86860677802392
1143,22.797573381013917
1144,22.539375911926507
2426,100.0
2468,100.0
2474,0.0
2480,100.0
2486,100.0
2656,16264.778898258159
2758,5129124.502233682
2,5, 7, 5, 1,15, 0.00,60.00,Thursday
1140,23.26289649880923
1141,22.810660298819536
1142,21.99178401187691
1143,23.02727960125913
1144,22.54326163108902
2426,100.0
2468,100.0
2474,40.0
2480,100.0
2486,100.0
2656,16768.321479853978
2758,5129124.502233682
2,5, 7, 5, 1,16, 0.00,60.00,Thursday
1140,23.44930439532153
1141,22.74007527321182
1142,22.041687349147467
1143,23.262763076470344
1144,22.507165983091029
2426,100.0
2468,100.0
2474,100.0
2480,100.0
2486,100.0
2656,17261.07109236162
2758,5129124.502233682
2,5, 7, 5, 1,17, 0.00,60.00,Thursday
1140,23.367800470550706
1141,22.336263000256886
1142,21.986596681858573
1143,23.271953983080349
1144,22.191957007702674
2426,100.0
2468,100.0
2474,40.0
2480,100.0
2486,100.0
2656,14525.700466533846
2758,5129124.502233682
2,5, 7, 5, 1,18, 0.00,60.00,Thursday
1140,22.95140550390379
1141,21.996532160656384
1142,21.83373248276855
1143,22.929146071984584
1144,21.941342778093096
2426,100.0
2468,55.0
2474,0.0
2480,100.0
2486,30.0
2656,9310.228232197476
2758,5129124.502233682
2,5, 7, 5, 1,19, 0.00,60.00,Thursday
1140,22.29035709454904
1141,21.75085109747678
1142,21.627452871753783
1143,22.339236511458887
1144,21.791842473775185
2426,100.0
2468,0.0
2474,0.0
2480,100.0
2486,0.0
2656,6966.877209575748
2758,5129124.502233682
2,5, 7, 5, 1,20, 0.00,60.00,Thursday
1140,21.70225682991777
1141,21.508083654992796
1142,21.386484586588247
1143,21.796641794788028