Program Version,EnergyPlus, Version 9.3.0-baff08990c, YMD=2021.12.16 05:55
1,5,Environment Title[],Latitude[deg],Longitude[deg],Time Zone[],Elevation[m]
2,8,Day of Simulation[],Month[],Day of Month[],DST Indicator[1=yes 0=no],Hour[],StartMinute[],EndMinute[],DayType
3,5,Cumulative Day of Simulation[],Month[],Day of Month[],DST Indicator[1=yes 0=no],DayType  ! When Daily Report Variables Requested
4,2,Cumulative Days of Simulation[],Month[]  ! When Monthly Report Variables Requested
5,1,Cumulative Days of Simulation[] ! When Run Period Report Variables Requested
6,1,Calendar Year of Simulation[] ! When Annual Report Variables Requested
1140,1,CORNER_CLASS_1_POD_1_ZN_1_FLR_1,Zone Mean Air Temperature [C] !Hourly
1141,1,MULT_CLASS_1_POD_1_ZN_1_FLR_1,Zone Mean Air Temperature [C] !Hourly
1142,1,CORRIDOR_POD_1_ZN_1_FLR_1,Zone Mean Air Temperature [C] !Hourly
1143,1,CORNER_CLASS_2_POD_1_ZN_1_FLR_1,Zone Mean Air Temperature [C] !Hourly
1144,1,MULT_CLASS_2_POD_1_ZN_1_FLR_1,Zone Mean Air Temperature [C] !Hourly
2426,1,CORNER_CLASS_1_POD_1_ZN_1_FLR_1_LOTEMP,Zone Radiant HVAC Pump Electric Power [W] !Hourly
2468,1,MULT_CLASS_1_POD_1_ZN_1_FLR_1_LOTEMP,Zone Radiant HVAC Pump Electric Power [W] !Hourly
2474,1,CORRIDOR_POD_1_ZN_1_FLR_1_LOTEMP,Zone Radiant HVAC Pump Electric Power [W] !Hourly
2480,1,CORNER_CLASS_2_POD_1_ZN_1_FLR_1_LOTEMP,Zone Radiant HVAC Pump Electric Power [W] !Hourly
2486,1,MULT_CLASS_2_POD_1_ZN_1_FLR_1_LOTEMP,Zone Radiant HVAC Pump Electric Power [W] !Hourly
2656,1,COOLSYS1 CHILLER1,Chiller Electric Power [W] !Hourly
2758,1,CHILLED WATER LOOP CHW SUPPLY PUMP2,Pump Electric Energy [J] !Hourly
End of Data Dictionary
1,RUNPERIOD 1,  30.00, -95.37,  -6.00,  29.00
2,1, 7, 1, 0, 1, 0.00,60.00,Monday
1140,21.223999675819134
1141,21.405034911041715
1142,21.14782477700579
1143,21.23426248373096
1144,21.40396286050913
2426,100.0
2468,100.0
2474,100.0
2480,100.0
2486,100.0
2656,7296.484807729469
2758,5380743.578620627
2,1, 7, 1, 0, 2, 0.00,60.00,Monday
1140,21.0823292284536
1141,21.293858278700627
1142,21.0461656645735
1143,21.09650843182913
1144,21.302593766190048
2426,100.0
2468,100.0
2474,100.0
2480,100.0
2486,100.0
2656,7360.007303920601
2758,5380743.578620627
2,1, 7, 1, 0, 3, 0.00,60.00,Monday
1140,20.965818120649357
1141,21.191265620842179
1142,20.952648780065439
1143,20.97808234834738
1144,21.205492206952955
2426,20.0
2468,100.0
2474,0.0
2480,35.0
2486,100.0
2656,6064.724517123367
2758,5380743.578620627
2,1, 7, 1, 0, 4, 0.00,60.00,Monday
1140,20.906436934967389
1141,21.101922903780048
1142,20.89968158774418
1143,20.911272753699355
1144,21.120350642878728
2426,0.0
2468,100.0
2474,0.0
2480,0.0
2486,100.0
2656,5260.503010057632
2758,5380743.578620627
2,1, 7, 1, 0, 5, 0.00,60.00,Monday
1140,20.868774580833848
1141,21.018569894118686
1142,20.863679746125614
1143,20.873278955775314
1144,21.041658070764365
2426,0.0
2468,75.0
2474,0.0
2480,0.0
2486,100.0
2656,4260.139442480587
2758,5380743.578620627
2,1, 7, 1, 0, 6, 0.00,60.00,Monday
1140,20.836816372610508
1141,20.955262390932679
1142,20.832001852742854
1143,20.842342652310437
1144,20.971510597467515
2426,0.0
2468,0.0
2474,0.0
2480,0.0
2486,5.0
2656,136.07242921796689
2758,269037.17893103128
2,1, 7, 1, 0, 7, 0.00,60.00,Monday
1140,20.9107793511482
1141,20.994683317944419
1142,20.854205203203123
1143,20.943793230326315
1144,21.006557246519358
2426,5.0
2468,35.0
2474,0.0
2480,20.0
2486,45.0
2656,2773.1661230499555
2758,2421334.610379282
2,1, 7, 1, 0, 8, 0.00,60.00,Monday
1140,20.22839013515504
1141,20.15680961733062
1142,20.107380249987224
1143,20.289908137038105
1144,20.166035083599338
2426,2.5
2468,5.0
2474,0.0
2480,5.0
2486,5.0
2656,8202.674542047303
2758,5380743.578620627
2,1, 7, 1, 0, 9, 0.00,60.00,Monday
1140,20.922893253790169
1141,20.753857125424859
1142,20.13115953693236
1143,20.999585727651828
1144,20.791904711556695
2426,45.0
2468,20.0
2474,0.0
2480,55.0
2486,25.0
2656,9677.84711123645
2758,5380743.578620627
2,1, 7, 1, 0,10, 0.00,60.00,Monday
1140,21.545717079332716
1141,21.322575881303498
1142,20.406623866408834
1143,21.58211314608095
1144,21.339561580045385
2426,100.0
2468,100.0
2474,0.0
2480,100.0
2486,100.0
2656,14725.38421677276
2758,5380743.578620627
2,1, 7, 1, 0,11, 0.00,60.00,Monday
1140,21.965621415899617
1141,21.6801775556424
1142,20.691718946846785
1143,21.926875463285417
1144,21.62393323217984
2426,100.0
2468,100.0
2474,0.0
2480,100.0
2486,100.0
2656,16412.362242457795
2758,5380743.578620627
2,1, 7, 1, 0,12, 0.00,60.00,Monday
1140,22.321407819833106
1141,21.983784000534948
1142,20.941592059505063
1143,22.21050279983232
1144,21.849140640488039
2426,100.0
2468,100.0
2474,20.0
2480,100.0
2486,100.0
2656,18161.14804752342
2758,5380743.578620627
2,1, 7, 1, 0,13, 0.00,60.00,Monday
1140,22.523976109290488
1141,22.161613615308874
1142,21.108896650174679
1143,22.36623176533834
1144,21.973002867706957
2426,100.0
2468,100.0
2474,100.0
2480,100.0
2486,100.0
2656,19577.142615702527
2758,5380743.578620627
2,1, 7, 1, 0,14, 0.00,60.00,Monday
1140,22.6207506309674
1141,22.242805667560917
1142,21.183686828947356
1143,22.435832317891916
1144,22.021230477332208
2426,100.0
2468,100.0
2474,100.0
2480,100.0
2486,100.0
2656,19877.99099173153
2758,5380743.578620627
2,1, 7, 1, 0,15, 0.00,60.00,Monday
1140,22.880152678702513
1141,22.319094870005264
1142,21.265553240961155
1143,22.69464466710202
1144,22.08787216114611
2426,100.0
2468,100.0
2474,100.0
2480,100.0
2486,100.0
2656,20509.48271032509
2758,5380743.578620627
2,1, 7, 1, 0,16, 0.00,60.00,Monday
1140,23.301217179408839
1141,22.30927965085165
1142,21.360124784165284
1143,23.15809238474428
1144,22.11124171005002
2426,100.0
2468,100.0
2474,100.0
2480,100.0
2486,100.0
2656,20879.810581451315
2758,5380743.578620627
2,1, 7, 1, 0,17, 0.00,60.00,Monday
1140,23.583473368451288
1141,22.25070702822927
1142,21.406275429044738
1143,23.497481001297044
1144,22.110421170383018
2426,100.0
2468,100.0
2474,100.0
2480,100.0
2486,100.0
2656,20990.27085668997
2758,5380743.578620627
2,1, 7, 1, 0,18, 0.00,60.00,Monday
1140,23.042905910272169
1141,21.851957376098065
1142,21.25071989267168
1143,22.98784471861519
1144,21.749607324648986
2426,100.0
2468,100.0
2474,100.0
2480,100.0
2486,100.0
2656,18784.313481651792
2758,5380743.578620627
2,1, 7, 1, 0,19, 0.00,60.00,Monday
1140,22.316189433625938
1141,21.484662654700647
1142,20.96022894526649
1143,22.28909360422319
1144,21.419176466082815
2426,100.0
2468,100.0
2474,40.0
2480,100.0
2486,100.0
2656,15490.377232209104
2758,5380743.578620627
2,1, 7, 1, 0,20, 0.00,60.00,Monday
1140,21.778601281799895
1141,21.241808850604689
1142,20.69760927255329
1143,21.772659950249098
1144,21.19783974282614
2426,100.0
2468,100.0
2474,0.0
2480,100.0
2486,100.0
2656,12717.626814013758
2758,5380743.578620627
2,1, 7, 1, 0,21, 0.00,60.00,Monday
1140,21.243120079119998
1141,20.94725433514428
1142,20.480501793314799
1143,21.240612308630675
1144,20.915015181492956
2426,100.0
2468,30.0
2474,0.0
2480,100.0
2486,20.0
2656,8116.905345515162
2758,5380743.578620627
2,1, 7, 1, 0,22, 0.00,60.00,Monday
1140,21.51360625432323
1141,21.4358170411267
1142,21.09605916848821
1143,21.515903811616217
1144,21.41293600929901
2426,100.0
2468,95.0
2474,70.0
2480,100.0
2486,92.5
2656,6919.1878621219589
2758,5380743.578620627
2,1, 7, 1, 0,23, 0.00,60.00,Monday
1140,21.482782150072027
1141,21.5826948580289
1142,21.29282565303971
1143,21.492873511454119
1144,21.565207121626988
2426,100.0
2468,100.0
2474,100.0
2480,100.0
2486,100.0
2656,7278.206885562504
2758,5380743.578620627
2,1, 7, 1, 0,24, 0.00,60.00,Monday
1140,21.34732244019811
1141,21.50658467219506
1142,21.239513857232209
1143,21.35546007866594
1144,21.493436331272187
2426,100.0
2468,100.0
2474,100.0
2480,100.0
2486,100.0
2656,7271.363855793401
2758,5380743.578620627
2,2, 7, 2, 0, 1, 0.00,60.00,Tuesday
1140,21.192709245687764
1141,21.388275504810577
1142,21.145361685707309
1143,21.20068857767018
1144,21.385318225312486
2426,100.0
2468,100.0
2474,100.0
2480,100.0
2486,100.0
2656,7271.363855793401
2758,5380743.578620627
2,2, 7, 2, 0, 2, 0.00,60.00,Tuesday
1140,21.048335002814324
1141,21.278168040968497
1142,21.044441659788988
1143,21.056006714734037
1144,21.279270075502077
2426,100.0
2468,100.0
2474,100.0
2480,100.0
2486,100.0
2656,7271.363855793401
2758,5380743.578620627
2,2, 7, 2, 0, 3, 0.00,60.00,Tuesday
1140,20.99053278314672
1141,21.217444786735738
1142,20.97238501439074
1143,20.995665484484254
1144,21.221155504401769
2426,30.0
2468,100.0
2474,5.0
2480,40.0
2486,100.0
2656,5961.723461973174
2758,5380743.578620627
2,2, 7, 2, 0, 4, 0.00,60.00,Tuesday
1140,20.960924491395006
1141,21.15924005283021
1142,20.946850929318324
1143,20.96211615304331
1144,21.166551649785285
2426,0.0
2468,100.0
2474,0.0
2480,0.0
2486,100.0
2656,5181.901424099832
2758,5380743.578620627
2,2, 7, 2, 0, 5, 0.00,60.00,Tuesday
1140,20.90830882267568
1141,21.06926128213572
1142,20.91733887996343
1143,20.911046207810537
1144,21.08278806821065
2426,0.0
2468,100.0
2474,0.0
2480,0.0
2486,100.0
2656,5071.627141566973
2758,5380743.578620627
2,2, 7, 2, 0, 6, 0.00,60.00,Tuesday
1140,20.911884856422796
1141,21.01060658267831
1142,20.89333515450537
1143,20.915910017549185
1144,21.026766981891265
2426,0.0
2468,80.0
2474,0.0
2480,0.0
2486,100.0
2656,4397.665565416564
2758,5380743.578620627
2,2, 7, 2, 0, 7, 0.00,60.00,Tuesday
1140,20.99400284248349
1141,21.014944087839714
1142,20.91281942777088
1143,21.020159261209615
1144,21.02311832102217
2426,40.0
2468,50.0
2474,0.0
2480,55.0
2486,100.0
2656,4709.497572560915
2758,5380743.578620627
2,2, 7, 2, 0, 8, 0.00,60.00,Tuesday
1140,20.28451087971236
1141,20.164402777942919
1142,20.14767448946346
1143,20.326252532771464
1144,20.154956190277966
2426,5.0
2468,5.0
2474,0.0
2480,5.0
2486,2.5
2656,7581.750580343626
2758,5380743.578620627
2,2, 7, 2, 0, 9, 0.00,60.00,Tuesday
1140,20.918582440434855
1141,20.70572856706001
1142,20.12106611206285
1143,20.9620544380369
1144,20.697492553529139
2426,45.0
2468,5.0
2474,0.0
2480,50.0
2486,0.0
2656,8302.754267288723
2758,5380743.578620627
2,2, 7, 2, 0,10, 0.00,60.00,Tuesday
1140,21.527704848910977
1141,21.258660760054867
1142,20.374660087834284
1143,21.526057967929824
1144,21.210239908499376
2426,100.0
2468,100.0
2474,0.0
2480,100.0
2486,100.0
2656,14103.340976320766
2758,5380743.578620627
2,2, 7, 2, 0,11, 0.00,60.00,Tuesday
1140,22.064228137859226
1141,21.685690712507787
1142,20.662336493045577
1143,21.99964803734254
1144,21.571169003908648
2426,100.0
2468,100.0
2474,0.0
2480,100.0
2486,100.0
2656,16455.589539061293
2758,5380743.578620627
2,2, 7, 2, 0,12, 0.00,60.00,Tuesday
1140,22.336508268217118
1141,21.9376595204181
1142,20.910747595734667
1143,22.214255313357329
1144,21.764306654635275
2426,100.0
2468,100.0
2474,5.0
2480,100.0
2486,100.0
2656,17552.988780981388
2758,5380743.578620627
2,2, 7, 2, 0,13, 0.00,60.00,Tuesday
1140,22.48261807821688
1141,22.096997839115415
1142,21.089405866107059
1143,22.313999858612655
1144,21.875087700883538
2426,100.0
2468,100.0
2474,100.0
2480,100.0
2486,100.0
2656,18791.15046655674
2758,5380743.578620627
2,2, 7, 2, 0,14, 0.00,60.00,Tuesday
1140,22.63908187698227
1141,22.20481166063876
1142,21.175702247193934
1143,22.4390361237825
1144,21.944392948987326
2426,100.0
2468,100.0
2474,100.0
2480,100.0
2486,100.0
2656,18897.551738233808
2758,5380743.578620627
2,2, 7, 2, 0,15, 0.00,60.00,Tuesday
1140,22.88210500160851
1141,22.294846121454265
1142,21.266791047704606
1143,22.693132084319225
1144,22.040094420637709
2426,100.0
2468,100.0
2474,100.0
2480,100.0
2486,100.0
2656,19690.82559408246
2758,5380743.578620627
2,2, 7, 2, 0,16, 0.00,60.00,Tuesday
1140,23.256721492536515
1141,22.297640698682036
1142,21.351361487428137
1143,23.1032381837124
1144,22.069839484860638
2426,100.0
2468,100.0
2474,100.0
2480,100.0
2486,100.0
2656,19209.562009294368
2758,5380743.578620627
2,2, 7, 2, 0,17, 0.00,60.00,Tuesday
1140,23.045639712060909
1141,22.116168503155497
1142,21.287500418883547
1143,22.94583170904629
1144,21.94685799547065
2426,100.0
2468,100.0
2474,100.0
2480,100.0
2486,100.0
2656,17261.329339837022
2758,5380743.578620627
2,2, 7, 2, 0,18, 0.00,60.00,Tuesday
1140,22.246761458650739
1141,21.56550036115201
1142,21.00164508826746
1143,22.182959449235278
1144,21.4458645568223
2426,100.0
2468,100.0
2474,55.0
2480,100.0
2486,100.0
2656,14193.177885524801
2758,5380743.578620627
2,2, 7, 2, 0,19, 0.00,60.00,Tuesday
1140,21.655546256722866
1141,21.20547856577974
1142,20.728286212083785
1143,21.61713869137385
1144,21.121642211397015
2426,100.0
2468,100.0
2474,0.0
2480,100.0
2486,100.0
2656,11909.642928833073
2758,5380743.578620627
2,2, 7, 2, 0,20, 0.00,60.00,Tuesday
1140,21.30907152410446
1141,21.015432709862574
1142,20.507953295821268
1143,21.291870461376918
1144,20.95535948159019
2426,100.0
2468,65.0
2474,0.0
2480,100.0
2486,20.0
2656,9397.357364389381
2758,5380743.578620627
2,2, 7, 2, 0,21, 0.00,60.00,Tuesday
1140,20.941760494517817
1141,20.781428581289494
1142,20.306165834984289
1143,20.928203179350889
1144,20.74945552724489
2426,30.0
2468,0.0
2474,0.0
2480,25.0
2486,0.0
2656,7363.756067666478
2758,5380743.578620627
2,2, 7, 2, 0,22, 0.00,60.00,Tuesday
1140,21.395967879004286
1141,21.370071648946273
1142,20.99222190810756
1143,21.39340872443541
1144,21.35790300659454
2426,95.0
2468,90.0
2474,55.0
2480,95.0
2486,87.5
2656,6652.7553624921479
2758,5111706.399689595
2,2, 7, 2, 0,23, 0.00,60.00,Tuesday
1140,21.47655954830763
1141,21.570363911309394
1142,21.25054832282167
1143,21.48184533149012
1144,21.57110247197564
2426,100.0
2468,100.0
2474,100.0
2480,100.0
2486,100.0
2656,7291.209945264442
2758,5380743.578620627
2,2, 7, 2, 0,24, 0.00,60.00,Tuesday
1140,21.358972338762976
1141,21.50739723975446
1142,21.226932301587678
1143,21.36545717805519
1144,21.513543036765538
2426,100.0
2468,100.0
2474,100.0
2480,100.0
2486,100.0
2656,7259.5575461185339
2758,5380743.578620627
2,3, 7, 3, 0, 1, 0.00,60.00,Wednesday
1140,21.217958285935859
1141,21.410095409382018
1142,21.153911388390705
1143,21.225232073169747
1144,21.42030478590587
2426,100.0
2468,100.0
2474,100.0
2480,100.0
2486,100.0
2656,7246.372988862681
2758,5380743.578620627
2,3, 7, 3, 0, 2, 0.00,60.00,Wednesday
1140,21.16226057272169
1141,21.357638360787456
1142,21.085183424897318
1143,21.167555497211088
1144,21.368692872787237
2426,100.0
2468,100.0
2474,100.0
2480,100.0
2486,100.0
2656,7246.372988862681
2758,5380743.578620627
2,3, 7, 3, 0, 3, 0.00,60.00,Wednesday
1140,21.096803436363115
1141,21.301064634877485
1142,21.02093503071049
1143,21.10362459082311
1144,21.31570807738344
2426,100.0
2468,100.0
2474,85.0
2480,100.0
2486,100.0
2656,7224.912554247328
2758,5380743.578620627
2,3, 7, 3, 0, 4, 0.00,60.00,Wednesday
1140,21.039703253813827
1141,21.247403558468194
1142,20.9681524437253
1143,21.04460484605652
1144,21.262251528246588
2426,100.0
2468,100.0
2474,0.0
2480,100.0
2486,100.0
2656,7009.057313511587
2758,5380743.578620627
2,3, 7, 3, 0, 5, 0.00,60.00,Wednesday
1140,20.965026051865189
1141,21.18252139031885
1142,20.94627776400999
1143,20.97125941022756
1144,21.200401505596543
2426,25.0
2468,100.0
2474,0.0
2480,30.0
2486,100.0
2656,5763.64600290899
2758,5380743.578620627
2,3, 7, 3, 0, 6, 0.00,60.00,Wednesday
1140,20.88720793850444
1141,21.091290673958626
1142,20.922104372043628
1143,20.897065413988487
1144,21.112608479176946
2426,0.0
2468,100.0
2474,0.0
2480,0.0
2486,100.0
2656,5152.14889900344
2758,5380743.578620627
2,3, 7, 3, 0, 7, 0.00,60.00,Wednesday
1140,20.955181613989376
1141,21.071787137908698
1142,20.93318523159903
1143,20.987974479462677
1144,21.092188344823858
2426,20.0
2468,100.0
2474,0.0
2480,35.0
2486,100.0
2656,5843.433450581556
2758,5380743.578620627
2,3, 7, 3, 0, 8, 0.00,60.00,Wednesday
1140,20.223233535417366
1141,20.163111834558039
1142,20.146470049387824
1143,20.289636671670814
1144,20.18197501035312
2426,2.5
2468,5.0
2474,0.0
2480,5.0
2486,5.0
2656,7934.595349649602
2758,5380743.578620627
2,3, 7, 3, 0, 9, 0.00,60.00,Wednesday
1140,20.826914640923925
1141,20.683358828251316
1142,20.119857523188999
1143,20.91289595514468
1144,20.735538944343284
2426,30.0
2468,0.0
2474,0.0
2480,40.0
2486,10.0
2656,8512.661952198625
2758,5380743.578620627
2,3, 7, 3, 0,10, 0.00,60.00,Wednesday
1140,21.46051079933617
1141,21.243296881967909
1142,20.362895510656935
1143,21.503314216055764
1144,21.266363617316107
2426,100.0
2468,100.0
2474,0.0
2480,100.0
2486,100.0
2656,14041.374831059653
2758,5380743.578620627
2,3, 7, 3, 0,11, 0.00,60.00,Wednesday
1140,21.78701698862201
1141,21.53296290459432
1142,20.60908971354435
1143,21.766137459674753
1144,21.493579923437584
2426,100.0
2468,100.0
2474,0.0
2480,100.0
2486,100.0
2656,15505.20878288832
2758,5380743.578620627
2,3, 7, 3, 0,12, 0.00,60.00,Wednesday
1140,22.044702972549066
1141,21.744794247013674
1142,20.787873630067979
1143,21.95625994862565
1144,21.63437581575604
2426,100.0
2468,100.0
2474,0.0
2480,100.0
2486,100.0
2656,16418.500283796184
2758,5380743.578620627
2,3, 7, 3, 0,13, 0.00,60.00,Wednesday
1140,22.285253544951666
1141,21.9702341865057
1142,21.018710544844006
1143,22.158960196236884
1144,21.822940697364279
2426,100.0
2468,100.0
2474,50.0
2480,100.0
2486,100.0
2656,17785.386415926485
2758,5380743.578620627
2,3, 7, 3, 0,14, 0.00,60.00,Wednesday
1140,22.464185949825866
1141,22.122290036295959
1142,21.17005624520059
1143,22.312714057613058
1144,21.942769835871954
2426,100.0
2468,100.0
2474,100.0
2480,100.0
2486,100.0
2656,19395.067036658602
2758,5380743.578620627
2,3, 7, 3, 0,15, 0.00,60.00,Wednesday
1140,22.679561341992938
1141,22.169198130260989
1142,21.201678754752469
1143,22.51472669165744
1144,21.963534641560665
2426,100.0
2468,100.0
2474,100.0
2480,100.0
2486,100.0
2656,19483.182798080627
2758,5380743.578620627
2,3, 7, 3, 0,16, 0.00,60.00,Wednesday
1140,22.847398280939055
1141,22.108737274755997
1142,21.227602443892829
1143,22.71328124010681
1144,21.925254963674257
2426,100.0
2468,100.0
2474,100.0
2480,100.0
2486,100.0
2656,17486.07848476257
2758,5380743.578620627
2,3, 7, 3, 0,17, 0.00,60.00,Wednesday
1140,22.750208997104378
1141,21.889785924990947
1142,21.159024176185019
1143,22.664365228941536
1144,21.75779536731593
2426,100.0
2468,100.0
2474,100.0
2480,100.0
2486,100.0
2656,15247.167677329926
2758,5380743.578620627
2,3, 7, 3, 0,18, 0.00,60.00,Wednesday
1140,22.13711249478849
1141,21.437241165459679
1142,20.926137533290665
1143,22.085028894146736
1144,21.34808948516157
2426,100.0
2468,100.0
2474,30.0
2480,100.0
2486,100.0
2656,13616.470036465795
2758,5380743.578620627
2,3, 7, 3, 0,19, 0.00,60.00,Wednesday
1140,21.644412983061224
1141,21.149328692112705
1142,20.692703036746964
1143,21.614224224883029
1144,21.086095668072326
2426,100.0
2468,100.0
2474,0.0
2480,100.0
2486,100.0
2656,12670.60966158802
2758,5380743.578620627
2,3, 7, 3, 0,20, 0.00,60.00,Wednesday
1140,21.325016774299486
1141,20.980117214898806
1142,20.494194673284139
1143,21.31551818999657
1144,20.942063502128876
2426,100.0
2468,45.0
2474,0.0
2480,100.0
2486,15.0
2656,9896.806911638023
2758,5380743.578620627
2,3, 7, 3, 0,21, 0.00,60.00,Wednesday
1140,20.914474196449825
1141,20.729672144913097
1142,20.290848148509136
1143,20.9138890574788
1144,20.717173353348519
2426,25.0
2468,0.0
2474,0.0
2480,25.0
2486,0.0
2656,7650.203748741862
2758,5380743.578620627
2,3, 7, 3, 0,22, 0.00,60.00,Wednesday
1140,21.40048278773515
1141,21.34700962038713
1142,20.988626008551344
1143,21.410980193429635
1144,21.35030010497496
2426,90.0
2468,87.5
2474,55.0
2480,90.0
2486,87.5
2656,6681.217793444883
2758,4842669.220758564
2,3, 7, 3, 0,23, 0.00,60.00,Wednesday
1140,21.52113406620918
1141,21.586790911639793
1142,21.26827942755641
1143,21.5363935821594
1144,21.597541031792529
2426,100.0
2468,100.0
2474,100.0
2480,100.0
2486,100.0
2656,7495.081876231734
2758,5380743.578620627
2,3, 7, 3, 0,24, 0.00,60.00,Wednesday
1140,21.365735629743843
1141,21.506823366686825
1142,21.243569791131955
1143,21.381446808826554
1144,21.52277247854021
2426,100.0
2468,100.0
2474,100.0
2480,100.0
2486,100.0
2656,7363.426260588989
2758,5380743.578620627
2,4, 7, 4, 0, 1, 0.00,60.00,Holiday
1140,21.22558878971406
1141,21.40661494951393
1142,21.16154424739377
1143,21.242665725589516
1144,21.42697639402694
2426,100.0
2468,100.0
2474,100.0
2480,100.0
2486,100.0
2656,7365.069463123878
2758,5380743.578620627
2,4, 7, 4, 0, 2, 0.00,60.00,Holiday
1140,21.15478396767368
1141,21.33728274150898
1142,21.0754586351484
1143,21.173092098999317
1144,21.361415874102954
2426,100.0
2468,100.0
2474,100.0
2480,100.0
2486,100.0
2656,7363.426260588989
2758,5380743.578620627
2,4, 7, 4, 0, 3, 0.00,60.00,Holiday
1140,21.10737322907842
1141,21.289051818003359
1142,21.01112059408125
1143,21.121853526026194
1144,21.31187858183839
2426,100.0
2468,100.0
2474,70.0
2480,100.0
2486,100.0
2656,7288.377376117847
2758,5380743.578620627
2,4, 7, 4, 0, 4, 0.00,60.00,Holiday
1140,20.99007613841028
1141,21.19880538708989
1142,20.95558168920299
1143,21.00479219898212
1144,21.226692688555884
2426,25.0
2468,100.0
2474,0.0
2480,55.0
2486,100.0
2656,6304.732901370642
2758,5380743.578620627
2,4, 7, 4, 0, 5, 0.00,60.00,Holiday
1140,20.959375645756177
1141,21.131039353763418
1142,20.92574124681507
1143,20.959508200554585
1144,21.160229826015696
2426,0.0
2468,100.0
2474,0.0
2480,0.0
2486,100.0
2656,5386.770255555342
2758,5380743.578620627
2,4, 7, 4, 0, 6, 0.00,60.00,Holiday
1140,20.923751896384084
1141,21.054544421571469
1142,20.904012317074338
1143,20.92174379258103
1144,21.085459173694099
2426,0.0
2468,100.0
2474,0.0
2480,0.0
2486,100.0
2656,5300.705738932066
2758,5380743.578620627
2,4, 7, 4, 0, 7, 0.00,60.00,Holiday
1140,21.07479022781387
1141,21.087083002897648
1142,20.934800914313667
1143,21.088324411319364
1144,21.12673404972785
2426,65.0
2468,100.0
2474,0.0
2480,70.0
2486,100.0
2656,6573.093117388309
2758,5380743.578620627
2,4, 7, 4, 0, 8, 0.00,60.00,Holiday
1140,20.407749551836785
1141,20.241405452961098
1142,20.167137073729429
1143,20.417728184276866
1144,20.26474044530744
2426,10.0
2468,5.0
2474,0.0
2480,10.0
2486,10.0
2656,7813.351292040973
2758,5380743.578620627
2,4, 7, 4, 0, 9, 0.00,60.00,Holiday
1140,20.39608831487844
1141,20.096716074349894
1142,20.009994615586469
1143,20.392199830942809
1144,20.09524383086312
2426,0.0
2468,0.0
2474,0.0
2480,0.0
2486,0.0
2656,7424.98874701771
2758,5380743.578620627
2,4, 7, 4, 0,10, 0.00,60.00,Holiday
1140,20.741237779563215
1141,20.333698985396489
1142,20.102849825265204
1143,20.69827523459141
1144,20.28144352120499
2426,0.0
2468,0.0
2474,0.0
2480,0.0
2486,0.0
2656,7512.459123117801
2758,5380743.578620627
2,4, 7, 4, 0,11, 0.00,60.00,Holiday
1140,21.258054820647627
1141,20.732986481024818
1142,20.305694324105106
1143,21.158188350430259
1144,20.606980852943634
2426,90.0
2468,0.0
2474,0.0
2480,75.0
2486,0.0
2656,8981.571413932294
2758,5380743.578620627
2,4, 7, 4, 0,12, 0.00,60.00,Holiday
1140,21.647599298111538
1141,21.076386640387754
1142,20.503582426470638
1143,21.49801351016972
1144,20.88020504455349
2426,100.0
2468,75.0
2474,0.0
2480,100.0
2486,0.0
2656,11542.327540818409
2758,5380743.578620627
2,4, 7, 4, 0,13, 0.00,60.00,Holiday
1140,21.828376531033507
1141,21.25429960355228
1142,20.675039011537405
1143,21.64455829548436
1144,21.045047893842008
2426,100.0
2468,100.0
2474,0.0
2480,100.0
2486,75.0
2656,14431.560840115428
2758,5380743.578620627
2,4, 7, 4, 0,14, 0.00,60.00,Holiday
1140,21.945168461712396
1141,21.345526215308877
1142,20.80895189134426
1143,21.745145264269455
1144,21.13279280330622
2426,100.0
2468,100.0
2474,0.0
2480,100.0
2486,100.0
2656,15606.69817919753
2758,5380743.578620627
2,4, 7, 4, 0,15, 0.00,60.00,Holiday
1140,22.166560025291017
1141,21.41799016169374
1142,20.922805615552638
1143,21.97711373432537
1144,21.21233418718726
2426,100.0
2468,100.0
2474,0.0
2480,100.0
2486,100.0
2656,15668.202720057263
2758,5380743.578620627
2,4, 7, 4, 0,16, 0.00,60.00,Holiday
1140,22.57723050976118
1141,21.41159752667391
1142,21.039890084991794
1143,22.433485894031386
1144,21.244903360786738
2426,100.0
2468,100.0
2474,80.0
2480,100.0
2486,100.0
2656,16631.60781287263
2758,5380743.578620627
2,4, 7, 4, 0,17, 0.00,60.00,Holiday
1140,22.84334882594778
1141,21.336623666679438
1142,21.096951932291256
1143,22.757463033320968
1144,21.228158658500285
2426,100.0
2468,100.0
2474,100.0
2480,100.0
2486,100.0
2656,17100.127033775916
2758,5380743.578620627
2,4, 7, 4, 0,18, 0.00,60.00,Holiday
1140,22.57707357556223
1141,21.151321985257874
1142,21.004371308736404
1143,22.525163859641006
1144,21.08352910962703
2426,100.0
2468,100.0
2474,60.0
2480,100.0
2486,90.0
2656,15726.89137743769
2758,5380743.578620627
2,4, 7, 4, 0,19, 0.00,60.00,Holiday
1140,21.853581844859457
1141,20.874559307621209
1142,20.773678876975443
1143,21.835642488256135
1144,20.857574056129907
2426,100.0
2468,10.0
2474,0.0
2480,100.0
2486,0.0
2656,9735.365195251306
2758,5380743.578620627
2,4, 7, 4, 0,20, 0.00,60.00,Holiday
1140,21.220330889337128
1141,20.630140661108535
1142,20.533369046314648
1143,21.21595649175972
1144,20.632230369492647
2426,95.0
2468,0.0
2474,0.0
2480,95.0
2486,0.0
2656,7975.903647963243
2758,5380743.578620627
2,4, 7, 4, 0,21, 0.00,60.00,Holiday
1140,20.792794722985556
1141,20.43027794605129
1142,20.361806161897559
1143,20.79450969299763
1144,20.442086670028219
2426,0.0
2468,0.0
2474,0.0
2480,0.0
2486,0.0
2656,7380.778676917629
2758,5380743.578620627
2,4, 7, 4, 0,22, 0.00,60.00,Holiday
1140,21.53046820405107
1141,21.367479869974774
1142,21.065661260074476
1143,21.53781463919606
1144,21.390739416716057
2426,90.0
2468,82.5
2474,65.0
2480,90.0
2486,82.5
2656,6701.356975529113
2758,4842669.220758564
2,4, 7, 4, 0,23, 0.00,60.00,Holiday
1140,21.649399311325717
1141,21.68870526380846
1142,21.350173544265429
1143,21.664391998316959
1144,21.723638225977078
2426,100.0
2468,100.0
2474,100.0
2480,100.0
2486,100.0
2656,8108.589155994763
2758,5380743.578620627
2,4, 7, 4, 0,24, 0.00,60.00,Holiday
1140,21.497023240660118
1141,21.61888774354459
1142,21.32959014589438
1143,21.512016533233877
1144,21.65592018015423
2426,100.0
2468,100.0
2474,100.0
2480,100.0
2486,100.0
2656,7591.961368131281
2758,5380743.578620627
2,5, 7, 5, 0, 1, 0.00,60.00,Friday
1140,21.38146968569966
1141,21.540122312205097
1142,21.262409043893439
1143,21.39511419091021
1144,21.576881000530415
2426,100.0
2468,100.0
2474,100.0
2480,100.0
2486,100.0
2656,7291.209945264442
2758,5380743.578620627
2,5, 7, 5, 0, 2, 0.00,60.00,Friday
1140,21.25939198269829
1141,21.45050084948426
1142,21.18193366392027
1143,21.274174551402149
1144,21.488155513333675
2426,100.0
2468,100.0
2474,100.0
2480,100.0
2486,100.0
2656,7259.5575461185339
2758,5380743.578620627
2,5, 7, 5, 0, 3, 0.00,60.00,Friday
1140,21.157561310272784
1141,21.370052046623824
1142,21.101758228242873
1143,21.174370433038488
1144,21.409009139806814
2426,100.0
2468,100.0
2474,100.0
2480,100.0
2486,100.0
2656,7246.372988862681
2758,5380743.578620627
2,5, 7, 5, 0, 4, 0.00,60.00,Friday
1140,21.057673264067796
1141,21.293807845944256
1142,21.026755472253364
1143,21.07427433147063
1144,21.332189299456407
2426,95.0
2468,100.0
2474,90.0
2480,100.0
2486,100.0
2656,7219.18709354913
2758,5380743.578620627
2,5, 7, 5, 0, 5, 0.00,60.00,Friday
1140,20.933031780817779
1141,21.19218925214086
1142,20.95373703555496
1143,20.946858154371918
1144,21.23159863328533
2426,0.0
2468,100.0
2474,0.0
2480,5.0
2486,100.0
2656,5762.557901323462
2758,5380743.578620627
2,5, 7, 5, 0, 6, 0.00,60.00,Friday
1140,20.874258126385575
1141,21.09462503919568
1142,20.902408219710844
1143,20.88586911155079
1144,21.1345767847647
2426,0.0
2468,100.0
2474,0.0
2480,0.0
2486,100.0
2656,5337.966901875524
2758,5380743.578620627
2,5, 7, 5, 0, 7, 0.00,60.00,Friday
1140,20.92183044391348
1141,21.05930959246103
1142,20.904654864405385
1143,20.95865494155082
1144,21.103299104094356
2426,5.0
2468,100.0
2474,0.0
2480,20.0
2486,100.0
2656,5541.145660381492
2758,5380743.578620627
2,5, 7, 5, 0, 8, 0.00,60.00,Friday
1140,20.250605051986246
1141,20.190061157850928
1142,20.149531254234814
1143,20.308669589641889
1144,20.230016799863173
2426,2.5
2468,5.0
2474,0.0
2480,2.5
2486,5.0
2656,7702.192837840373
2758,5380743.578620627
2,5, 7, 5, 0, 9, 0.00,60.00,Friday
1140,20.861691895733658
1141,20.705376529330626
1142,20.125824766689424
1143,20.92077386925653
1144,20.75136090035124
2426,35.0
2468,0.0
2474,0.0
2480,45.0
2486,10.0
2656,8498.827938784218
2758,5380743.578620627
2,5, 7, 5, 0,10, 0.00,60.00,Friday
1140,21.456553949995567
1141,21.240271913992964
1142,20.375425357046507
1143,21.47079185793363
1144,21.249820572560674
2426,100.0
2468,100.0
2474,0.0
2480,100.0
2486,100.0
2656,13722.844962986896
2758,5380743.578620627
2,5, 7, 5, 0,11, 0.00,60.00,Friday
1140,21.865731073708479
1141,21.593670171207426
1142,20.661706179886335
1143,21.813040398834695
1144,21.533913911833879
2426,100.0
2468,100.0
2474,0.0
2480,100.0
2486,100.0
2656,15167.987448257545
2758,5380743.578620627
2,5, 7, 5, 0,12, 0.00,60.00,Friday
1140,22.218030580887996
1141,21.9007819360098
1142,20.92547784437422
1143,22.102640066959489
1144,21.77405697317746
2426,100.0
2468,100.0
2474,15.0
2480,100.0
2486,100.0
2656,16565.713435135007
2758,5380743.578620627
2,5, 7, 5, 0,13, 0.00,60.00,Friday
1140,22.514751846418954
1141,22.14947437855782
1142,21.139836067333243
1143,22.34594432399076
1144,21.960159967796736
2426,100.0
2468,100.0
2474,100.0
2480,100.0
2486,100.0
2656,18665.579811783777
2758,5380743.578620627
2,5, 7, 5, 0,14, 0.00,60.00,Friday
1140,22.752737470912757
1141,22.334128209402445
1142,21.27863100959171
1143,22.553167001366416
1144,22.104684694467435
2426,100.0
2468,100.0
2474,100.0
2480,100.0
2486,100.0
2656,19747.187194102295
2758,5380743.578620627
2,5, 7, 5, 0,15, 0.00,60.00,Friday
1140,22.946077917026547
1141,22.374815048991473
1142,21.328995437111737
1143,22.749411725372846
1144,22.1352586027704
2426,100.0
2468,100.0
2474,100.0
2480,100.0
2486,100.0
2656,19707.156076725354
2758,5380743.578620627
2,5, 7, 5, 0,16, 0.00,60.00,Friday
1140,23.13506481541699
1141,22.2922487290987
1142,21.32293717973439
1143,22.9811841046909
1144,22.08693183100798
2426,100.0
2468,100.0
2474,100.0
2480,100.0
2486,100.0
2656,19714.47627253386
2758,5380743.578620627
2,5, 7, 5, 0,17, 0.00,60.00,Friday