Program Version,EnergyPlus, Version 9.3.0-baff08990c, YMD=2021.12.10 06:00
1,5,Environment Title[],Latitude[deg],Longitude[deg],Time Zone[],Elevation[m]
2,8,Day of Simulation[],Month[],Day of Month[],DST Indicator[1=yes 0=no],Hour[],StartMinute[],EndMinute[],DayType
3,5,Cumulative Day of Simulation[],Month[],Day of Month[],DST Indicator[1=yes 0=no],DayType  ! When Daily Report Variables Requested
4,2,Cumulative Days of Simulation[],Month[]  ! When Monthly Report Variables Requested
5,1,Cumulative Days of Simulation[] ! When Run Period Report Variables Requested
6,1,Calendar Year of Simulation[] ! When Annual Report Variables Requested
7,1,Environment,Site Outdoor Air Drybulb Temperature [C] !Hourly
1141,1,CORNER_CLASS_1_POD_1_ZN_1_FLR_1,Zone Mean Air Temperature [C] !Hourly
1142,1,MULT_CLASS_1_POD_1_ZN_1_FLR_1,Zone Mean Air Temperature [C] !Hourly
1143,1,CORRIDOR_POD_1_ZN_1_FLR_1,Zone Mean Air Temperature [C] !Hourly
1144,1,CORNER_CLASS_2_POD_1_ZN_1_FLR_1,Zone Mean Air Temperature [C] !Hourly
1145,1,MULT_CLASS_2_POD_1_ZN_1_FLR_1,Zone Mean Air Temperature [C] !Hourly
2427,1,CORNER_CLASS_1_POD_1_ZN_1_FLR_1_LOTEMP,Zone Radiant HVAC Pump Electric Power [W] !Hourly
2469,1,MULT_CLASS_1_POD_1_ZN_1_FLR_1_LOTEMP,Zone Radiant HVAC Pump Electric Power [W] !Hourly
2475,1,CORRIDOR_POD_1_ZN_1_FLR_1_LOTEMP,Zone Radiant HVAC Pump Electric Power [W] !Hourly
2481,1,CORNER_CLASS_2_POD_1_ZN_1_FLR_1_LOTEMP,Zone Radiant HVAC Pump Electric Power [W] !Hourly
2487,1,MULT_CLASS_2_POD_1_ZN_1_FLR_1_LOTEMP,Zone Radiant HVAC Pump Electric Power [W] !Hourly
2657,1,COOLSYS1 CHILLER1,Chiller Electric Power [W] !Hourly
2759,1,CHILLED WATER LOOP CHW SUPPLY PUMP2,Pump Electric Energy [J] !Hourly
End of Data Dictionary
1,RUNPERIOD 1,  40.78, -73.97,  -5.00,  40.00
2,1, 6, 1, 1, 1, 0.00,60.00,Sunday
7,21.0725
1141,21.712985955478936
1142,22.0619987245736
1143,22.025530445565275
1144,21.753853043667975
1145,22.2809855384006
2427,0.0
2469,100.0
2475,75.0
2481,0.0
2487,100.0
2657,6972.0441405892329
2759,5129124.502233682
2,1, 6, 1, 1, 2, 0.00,60.00,Sunday
7,20.66
1141,21.678539152442889
1142,21.95882102459073
1143,21.926065321096027
1144,21.720398004124975
1145,22.16254579805269
2427,0.0
2469,20.0
2475,0.0
2481,0.0
2487,100.0
2657,3996.8913329804647
2759,5129124.502233682
2,1, 6, 1, 1, 3, 0.00,60.00,Sunday
7,19.060000000000004
1141,21.565998566788225
1142,21.86040400908442
1143,21.848152181883685
1144,21.60931563935924
1145,22.00337818797393
2427,0.0
2469,0.0
2475,0.0
2481,0.0
2487,55.0
2657,1629.355794316082
2759,2821018.4762285256
2,1, 6, 1, 1, 4, 0.00,60.00,Sunday
7,17.46
1141,21.43584994642156
1142,21.7731782838408
1143,21.769334035904543
1144,21.483349110388234
1145,21.8723645796152
2427,0.0
2469,0.0
2475,0.0
2481,0.0
2487,0.0
2657,0.0
2759,0.0
2,1, 6, 1, 1, 5, 0.00,60.00,Sunday
7,16.385000000000006
1141,21.29175498639462
1142,21.68026445652288
1143,21.688057738089989
1144,21.34044259935161
1145,21.76785527201546
2427,0.0
2469,0.0
2475,0.0
2481,0.0
2487,0.0
2657,0.0
2759,0.0
2,1, 6, 1, 1, 6, 0.00,60.00,Sunday
7,16.9925
1141,21.263247441569975
1142,21.659523793597093
1143,21.665050016335639
1144,21.32812010532792
1145,21.742867504087486
2427,0.0
2469,0.0
2475,0.0
2481,0.0
2487,0.0
2657,0.0
2759,0.0
2,1, 6, 1, 1, 7, 0.00,60.00,Sunday
7,18.377500000000006
1141,20.657667168486428
1142,20.917444524164073
1143,20.990420610240514
1144,20.739825008850184
1145,20.99013079307455
2427,0.0
2469,0.0
2475,0.0
2481,0.0
2487,0.0
2657,3488.1972984253154
2759,5129124.502233682
2,1, 6, 1, 1, 8, 0.00,60.00,Sunday
7,19.7925
1141,20.644615749170396
1142,20.783911650171058
1143,20.853101820305814
1144,20.72991838164868
1145,20.853784128986953
2427,0.0
2469,0.0
2475,0.0
2481,0.0
2487,0.0
2657,4104.538074000015
2759,5129124.502233682
2,1, 6, 1, 1, 9, 0.00,60.00,Sunday
7,21.177500000000003
1141,20.971076763921734
1142,21.015601485853347
1143,20.929842626234973
1144,20.979308189422228
1145,21.011727858689036
2427,0.0
2469,0.0
2475,0.0
2481,0.0
2487,0.0
2657,4508.035980733252
2759,5129124.502233682
2,1, 6, 1, 1,10, 0.00,60.00,Sunday
7,22.54
1141,21.347761938367559
1142,21.29730825374069
1143,21.066102604544036
1144,21.279564461670995
1145,21.218721524964225
2427,0.0
2469,0.0
2475,0.0
2481,0.0
2487,0.0
2657,5131.527194683855
2759,5129124.502233682
2,1, 6, 1, 1,11, 0.00,60.00,Sunday
7,24.192500000000004
1141,21.710678862003168
1142,21.56313082251152
1143,21.215091781645627
1144,21.57722450803539
1145,21.426073749364759
2427,0.0
2469,0.0
2475,0.0
2481,0.0
2487,0.0
2657,5863.397051806681
2759,5129124.502233682
2,1, 6, 1, 1,12, 0.00,60.00,Sunday
7,25.315000000000006
1141,22.07974094699001
1142,21.854536687525564
1143,21.3626447736427
1144,21.861783082289496
1145,21.623686484813065
2427,70.0
2469,0.0
2475,0.0
2481,0.0
2487,0.0
2657,6748.167056170612
2759,5129124.502233682
2,1, 6, 1, 1,13, 0.00,60.00,Sunday
7,26.1775
1141,22.34470506955562
1142,22.102183524835124
1143,21.493820731428117
1144,22.11044339795172
1145,21.78962862289071
2427,100.0
2469,95.0
2475,0.0
2481,95.0
2487,0.0
2657,9375.633968575607
2759,5129124.502233682
2,1, 6, 1, 1,14, 0.00,60.00,Sunday
7,26.9625
1141,22.494315130625407
1142,22.218411487524774
1143,21.60166750919054
1144,22.25530770476819
1145,21.90483774335192
2427,100.0
2469,100.0
2475,0.0
2481,100.0
2487,0.0
2657,10092.999220544441
2759,5129124.502233682
2,1, 6, 1, 1,15, 0.00,60.00,Sunday
7,27.514999999999995
1141,22.907016754710765
1142,22.27643446696471
1143,21.738781339645859
1144,22.67615816732394
1145,22.006546660574729
2427,100.0
2469,100.0
2475,0.0
2481,100.0
2487,50.0
2657,12124.555139778598
2759,5129124.502233682
2,1, 6, 1, 1,16, 0.00,60.00,Sunday
7,26.645
1141,23.204247462973468
1142,22.218356531179468
1143,21.831582623865044
1144,23.025385516585439
1145,22.01578918810966
2427,100.0
2469,100.0
2475,0.0
2481,100.0
2487,70.0
2657,12445.65403292668
2759,5129124.502233682
2,1, 6, 1, 1,17, 0.00,60.00,Sunday
7,24.96999999999999
1141,23.097022245940086
1142,21.990426500608924
1143,21.847846707364455
1144,23.020953994345125
1145,21.921944909764794
2427,100.0
2469,50.0
2475,0.0
2481,100.0
2487,0.0
2657,8155.698351463293
2759,5129124.502233682
2,1, 6, 1, 1,18, 0.00,60.00,Sunday
7,24.39999999999999
1141,22.66664172554118
1142,21.74701171667115
1143,21.76325286176858
1144,22.66718567956768
1145,21.78876696521696
2427,100.0
2469,0.0
2475,0.0
2481,100.0
2487,0.0
2657,6934.245660914127
2759,5129124.502233682
2,1, 6, 1, 1,19, 0.00,60.00,Sunday
7,23.560000000000004
1141,21.974390354221023
1142,21.51024075256853
1143,21.589373914470007
1144,22.035874113988006
1145,21.642993564850227
2427,50.0
2469,0.0
2475,0.0
2481,55.0
2487,0.0
2657,6015.434388426956
2759,5129124.502233682
2,1, 6, 1, 1,20, 0.00,60.00,Sunday
7,22.800000000000009
1141,21.428363287538735
1142,21.30723641265859
1143,21.405423947270447
1144,21.51654155579843
1145,21.49739250497985
2427,0.0
2469,0.0
2475,0.0
2481,0.0
2487,0.0
2657,5050.986852786276
2759,5129124.502233682
2,1, 6, 1, 1,21, 0.00,60.00,Sunday
7,22.800000000000009
1141,22.00583280324165
1142,22.210024411562054
1143,22.07717532787071
1144,22.1093864352414
1145,22.440580477413829
2427,60.0
2469,70.0
2475,65.0
2481,70.0
2487,80.0
2657,6876.498218057059
2759,4103299.601786947
2,1, 6, 1, 1,22, 0.00,60.00,Sunday
7,22.485000000000004
1141,22.1249698453273
1142,22.518869800542754
1143,22.317078794719359
1144,22.224431377753036
1145,22.757801951011709
2427,100.0
2469,100.0
2475,100.0
2481,100.0
2487,100.0
2657,9512.056608523451
2759,5129124.502233682
2,1, 6, 1, 1,23, 0.00,60.00,Sunday
7,21.622500000000004
1141,21.934476911654789
1142,22.380562198575725
1143,22.260229782639603
1144,22.017775179275487
1145,22.616748375721295
2427,25.0
2469,100.0
2475,100.0
2481,65.0
2487,100.0
2657,7770.052184708578
2759,5129124.502233682
2,1, 6, 1, 1,24, 0.00,60.00,Sunday
7,20.8375
1141,21.776641299688543
1142,22.199675321002624
1143,22.147979119496506
1144,21.82516324908108
1145,22.427479277499815
2427,0.0
2469,100.0
2475,100.0
2481,0.0
2487,100.0
2657,6977.803637529175
2759,5129124.502233682
2,2, 6, 2, 1, 1, 0.00,60.00,Monday
7,20.285000000000005
1141,21.673092875122259
1142,22.038415885005596
1143,22.02186997626374
1144,21.713004667108537
1145,22.2564722254535
2427,0.0
2469,80.0
2475,70.0
2481,0.0
2487,100.0
2657,6341.553295996053
2759,5129124.502233682
2,2, 6, 2, 1, 2, 0.00,60.00,Monday
7,19.684999999999996
1141,21.57196597360379
1142,21.909138199533225
1143,21.91397009932435
1144,21.60982620773731
1145,22.093172961011456
2427,0.0
2469,0.0
2475,0.0
2481,0.0
2487,100.0
2657,3323.9899665199789
2759,5129124.502233682
2,2, 6, 2, 1, 3, 0.00,60.00,Monday
7,19.399999999999996
1141,21.500360118023246
1142,21.851168394184059
1143,21.844935300118136
1144,21.53699090938843
1145,21.965863457212416
2427,0.0
2469,0.0
2475,0.0
2481,0.0
2487,15.0
2657,470.37694995355437
2759,769368.6753350523
2,2, 6, 2, 1, 4, 0.00,60.00,Monday
7,19.137499999999997
1141,21.484843827589719
1142,21.84600622237366
1143,21.804922789007756
1144,21.520937031521617
1145,21.93010671093379
2427,0.0
2469,0.0
2475,0.0
2481,0.0
2487,0.0
2657,0.0
2759,0.0
2,2, 6, 2, 1, 5, 0.00,60.00,Monday
7,18.899999999999996
1141,21.451577724150103
1142,21.834353713346766
1143,21.781016637569203
1144,21.486298797804225
1145,21.90742881025153
2427,0.0
2469,0.0
2475,0.0
2481,0.0
2487,0.0
2657,0.0
2759,0.0
2,2, 6, 2, 1, 6, 0.00,60.00,Monday
7,19.1625
1141,21.498001138440615
1142,21.867176962021035
1143,21.800600483811775
1144,21.551578943315854
1145,21.941609912334149
2427,0.0
2469,0.0
2475,0.0
2481,0.0
2487,0.0
2657,0.0
2759,0.0
2,2, 6, 2, 1, 7, 0.00,60.00,Monday
7,20.030000000000006
1141,20.92164691112468
1142,21.22603444797948
1143,21.239094994704105
1144,20.989682996503775
1145,21.291406451056255
2427,0.0
2469,0.0
2475,0.0
2481,0.0
2487,1.6666666666666666
2657,4301.037884370656
2759,5129124.502233682
2,2, 6, 2, 1, 8, 0.00,60.00,Monday
7,21.177500000000003
1141,22.993015130324677
1142,23.25392606088065
1143,21.277696704240069
1144,23.06699473751977
1145,23.311967108207978
2427,85.0
2469,85.0
2475,0.0
2481,85.0
2487,91.66666666666666
2657,14529.701239261722
2759,5129124.502233682
2,2, 6, 2, 1, 9, 0.00,60.00,Monday
7,22.54
1141,23.978610181009264
1142,23.999423977273023
1143,21.642604547571677
1144,23.990659612963108
1145,23.999420912121186
2427,100.0
2469,100.0
2475,0.0
2481,100.0
2487,100.0
2657,22334.90572550824
2759,5129124.502233682
2,2, 6, 2, 1,10, 0.00,60.00,Monday
7,24.192500000000004
1141,23.999139554781018
1142,23.999110646018118
1143,21.934945265694688
1144,23.999141969168546
1145,23.99910431218367
2427,100.0
2469,100.0
2475,15.0
2481,100.0
2487,100.0
2657,24774.801804810595
2759,5129124.502233682
2,2, 6, 2, 1,11, 0.00,60.00,Monday
7,26.155
1141,23.99894820708932
1142,23.998942378825626
1143,22.121600051826545
1144,23.998971974416777
1145,23.998959603370673
2427,100.0
2469,100.0
2475,100.0
2481,100.0
2487,100.0
2657,28054.41931808375
2759,5129124.502233682
2,2, 6, 2, 1,12, 0.00,60.00,Monday
7,28.0925
1141,23.998900546960415
1142,23.998896920735225
1143,22.25459275713326
1144,23.998941613084214
1145,23.998941726367645
2427,100.0
2469,100.0
2475,100.0
2481,100.0
2487,100.0
2657,29947.599003251147
2759,5129124.502233682
2,2, 6, 2, 1,13, 0.00,60.00,Monday
7,29.1625
1141,23.99894459565031
1142,23.99892193686322
1143,22.34306939834824
1144,23.998984581910994
1145,23.998974389351088
2427,100.0
2469,100.0
2475,100.0
2481,100.0
2487,100.0
2657,30857.588317586262
2759,5129124.502233682
2,2, 6, 2, 1,14, 0.00,60.00,Monday
7,29.399999999999989
1141,23.99896531662314
1142,23.99894530201758
1143,22.39358850554367
1144,23.999009458073709
1145,23.998998804154465
2427,100.0
2469,100.0
2475,100.0
2481,100.0
2487,100.0
2657,31033.127583664784
2759,5129124.502233682
2,2, 6, 2, 1,15, 0.00,60.00,Monday
7,29.715000000000005
1141,23.99898126251257
1142,23.998953549136038
1143,22.450132013770394
1144,23.998978363430905
1145,23.9989835482996
2427,100.0
2469,100.0
2475,100.0
2481,100.0
2487,100.0
2657,31473.413606629307
2759,5129124.502233682
2,2, 6, 2, 1,16, 0.00,60.00,Monday
7,29.684999999999996
1141,23.82659835214898
1142,23.4541740237324
1143,22.42961362115406
1144,23.69369776702448
1145,23.345330884351048
2427,100.0
2469,100.0
2475,100.0
2481,100.0
2487,100.0
2657,22267.82017049005
2759,5129124.502233682
2,2, 6, 2, 1,17, 0.00,60.00,Monday
7,28.559999999999996
1141,23.36499593288496
1142,22.525345087109437
1143,22.216018914894155
1144,23.27048265947881
1145,22.44933153945428
2427,100.0
2469,100.0
2475,100.0
2481,100.0
2487,100.0
2657,16009.061244713599
2759,5129124.502233682
2,2, 6, 2, 1,18, 0.00,60.00,Monday
7,27.485000000000008
1141,22.99213731337577
1142,22.058808700658028
1143,21.961989192805587
1144,22.954868452840239
1145,22.047513131174733
2427,100.0
2469,75.0
2475,40.0
2481,100.0
2487,70.0
2657,11443.586076574846
2759,5129124.502233682
2,2, 6, 2, 1,19, 0.00,60.00,Monday
7,26.360000000000004
1141,22.328188209206897
1142,21.805753255658144
1143,21.68127762679584
1144,22.35943841039519
1145,21.868260728635418
2427,100.0
2469,0.0
2475,0.0
2481,100.0
2487,0.0
2657,7265.037861149683
2759,5129124.502233682
2,2, 6, 2, 1,20, 0.00,60.00,Monday
7,24.392500000000003
1141,21.856159210178828
1142,21.71582490607048
1143,21.438335912064525
1144,21.926292271778946
1145,21.814041678422464
2427,20.0
2469,0.0
2475,0.0
2481,40.0
2487,0.0
2657,6804.99416518301
2759,5129124.502233682
2,2, 6, 2, 1,21, 0.00,60.00,Monday
7,23.300000000000009
1141,21.97374996998125
1142,22.12397714769755
1143,22.015366991098966
1144,22.038134374852399
1145,22.24821461635036
2427,50.0
2469,80.0
2475,65.0
2481,82.5
2487,90.0
2657,5802.859746402331
2759,4616212.052010315
2,2, 6, 2, 1,22, 0.00,60.00,Monday
7,23.300000000000009
1141,21.90974331456844
1142,22.184192456388894
1143,22.14468823709152
1144,21.955147911506953
1145,22.31047748361184
2427,0.0
2469,100.0
2475,100.0
2481,25.0
2487,100.0
2657,6920.068279610309
2759,5129124.502233682
2,2, 6, 2, 1,23, 0.00,60.00,Monday
7,22.46
1141,21.790334997709694
1142,22.060790296987454
1143,22.045102896396047
1144,21.81397695260585
1145,22.184146125507064
2427,0.0
2469,95.0
2475,95.0
2481,0.0
2487,100.0
2657,6579.486983794675
2759,5129124.502233682
2,2, 6, 2, 1,24, 0.00,60.00,Monday
7,21.9625
1141,21.681963603460856
1142,21.937828570605267
1143,21.935351249102447
1144,21.698836237777205
1145,22.044960232955284
2427,0.0
2469,0.0
2475,0.0
2481,0.0
2487,100.0
2657,2992.5450376564069
2759,5129124.502233682
2,3, 6, 3, 1, 1, 0.00,60.00,Tuesday
7,22.199999999999993
1141,21.656408756728955
1142,21.907511339665868
1143,21.872360208855054
1144,21.66997740270274
1145,21.969389522042449
2427,0.0
2469,0.0
2475,0.0
2481,0.0
2487,0.0
2657,0.0
2759,0.0
2,3, 6, 3, 1, 2, 0.00,60.00,Tuesday
7,21.9375
1141,21.63214165281861
1142,21.89808053958553
1143,21.838913777268908
1144,21.64357046079142
1145,21.94395544541447
2427,0.0
2469,0.0
2475,0.0
2481,0.0
2487,0.0
2657,0.0
2759,0.0
2,3, 6, 3, 1, 3, 0.00,60.00,Tuesday
7,20.807499999999999
1141,21.582771977408009
1142,21.881362669850647
1143,21.816288448389213
1144,21.59321268845887
1145,21.92263805979196
2427,0.0
2469,0.0
2475,0.0
2481,0.0
2487,0.0
2657,0.0
2759,0.0
2,3, 6, 3, 1, 4, 0.00,60.00,Tuesday
7,20.0
1141,21.547642863246315
1142,21.87970057221482
1143,21.805414640124416
1144,21.55718434918172
1145,21.91768331760324
2427,0.0
2469,0.0
2475,0.0
2481,0.0
2487,0.0
2657,0.0
2759,0.0
2,3, 6, 3, 1, 5, 0.00,60.00,Tuesday
7,20.0
1141,21.550790138373836
1142,21.899530521059149
1143,21.805714140441976
1144,21.56042405712406
1145,21.936318643348508
2427,0.0
2469,0.0
2475,0.0
2481,0.0
2487,0.0
2657,0.0
2759,0.0
2,3, 6, 3, 1, 6, 0.00,60.00,Tuesday
7,20.0
1141,21.607558808552434
1142,21.944900202314174
1143,21.828518168908596
1144,21.619839060980028
1145,21.980824551560354
2427,0.0
2469,0.0
2475,0.0
2481,0.0
2487,15.0
2657,105.43130452360272
2759,769368.6753350523
2,3, 6, 3, 1, 7, 0.00,60.00,Tuesday
7,20.0
1141,20.991210778755325
1142,21.235544725935598
1143,21.210831236702814
1144,21.025550020335154
1145,21.277553150756075
2427,0.0
2469,0.0
2475,0.0
2481,0.0
2487,1.6666666666666666
2657,5296.214911303781
2759,5129124.502233682
2,3, 6, 3, 1, 8, 0.00,60.00,Tuesday
7,20.315000000000006
1141,23.008902086647315
1142,23.266227507906508
1143,21.218587483627166
1144,23.01435107267592
1145,23.282847629320334
2427,80.0
2469,85.0
2475,0.0
2481,80.0
2487,85.0
2657,14539.737030864411
2759,5129124.502233682
2,3, 6, 3, 1, 9, 0.00,60.00,Tuesday
7,21.439999999999999
1141,23.968094816064956
1142,23.999295332949609
1143,21.555503804769125
1144,23.96335573382796
1145,23.999299607901074
2427,100.0
2469,100.0
2475,0.0
2481,100.0
2487,100.0
2657,21992.206954225498
2759,5129124.502233682
2,3, 6, 3, 1,10, 0.00,60.00,Tuesday
7,21.36
1141,23.999222393646869
1142,23.99915946971872
1143,21.82002013781524
1144,23.999216964559506
1145,23.999152374447733
2427,55.0
2469,100.0
2475,0.0
2481,60.0
2487,100.0
2657,20780.236834074352
2759,5129124.502233682
2,3, 6, 3, 1,11, 0.00,60.00,Tuesday
7,21.177500000000003
1141,23.999080729759176
1142,23.999098703839399
1143,21.989655035429455
1144,23.999099342791515
1145,23.999101153066286
2427,95.0
2469,100.0
2475,35.0
2481,80.0
2487,100.0
2657,22098.06231771618
2759,5129124.502233682
2,3, 6, 3, 1,12, 0.00,60.00,Tuesday
7,21.9625
1141,23.99907684059493
1142,23.999076989049489
1143,22.063816340730317
1144,23.99906429921542
1145,23.999069975981848
2427,75.0
2469,100.0
2475,100.0
2481,80.0
2487,100.0
2657,22556.417476471863
2759,5129124.502233682
2,3, 6, 3, 1,13, 0.00,60.00,Tuesday
7,22.199999999999993
1141,23.99909437501247
1142,23.999090614791915
1143,22.097733929170496
1144,23.9990979492358
1145,23.99908238178833
2427,95.0
2469,100.0
2475,100.0
2481,80.0
2487,100.0
2657,22758.578442375965
2759,5129124.502233682
2,3, 6, 3, 1,14, 0.00,60.00,Tuesday
7,22.7775
1141,23.999069944928949
1142,23.999050671366235
1143,22.155183080845857
1144,23.999077584986418
1145,23.999060876264929
2427,100.0
2469,100.0
2475,100.0
2481,100.0
2487,100.0
2657,23540.873281111806
2759,5129124.502233682
2,3, 6, 3, 1,15, 0.00,60.00,Tuesday
7,23.61499999999999
1141,23.99902552987068
1142,23.999006027834107
1143,22.285951817985337
1144,23.999019114578137
1145,23.99901618317812
2427,100.0
2469,100.0
2475,100.0
2481,100.0
2487,100.0
2657,24287.899352911736
2759,5129124.502233682
2,3, 6, 3, 1,16, 0.00,60.00,Tuesday
7,25.369999999999999
1141,23.742435377174208
1142,23.212881619121246
1143,22.32555644420598
1144,23.660226785545697
1145,23.15881390645405
2427,100.0
2469,100.0
2475,100.0
2481,100.0
2487,100.0
2657,18826.100998678965
2759,5129124.502233682
2,3, 6, 3, 1,17, 0.00,60.00,Tuesday
7,25.23
1141,22.927779792050705
1142,22.228304423246116
1143,22.030027384285739
1144,22.880087138624306
1145,22.20489142216521
2427,100.0
2469,90.0
2475,60.0
2481,100.0
2487,90.0
2657,11807.900539752887
2759,5129124.502233682
2,3, 6, 3, 1,18, 0.00,60.00,Tuesday
7,23.585
1141,22.296343818544753
1142,21.799238796575936
1143,21.74950708785847
1144,22.298155980023635
1145,21.830619294359346
2427,100.0
2469,0.0
2475,0.0
2481,100.0
2487,0.0
2657,6913.734870980761
2759,5129124.502233682
2,3, 6, 3, 1,19, 0.00,60.00,Tuesday
7,23.0375
1141,21.831536593506564
1142,21.608938535464185
1143,21.49780996656275
1144,21.877338590180256
1145,21.694693881442
2427,10.0
2469,0.0
2475,0.0
2481,15.0
2487,0.0
2657,6867.703105505125
2759,5129124.502233682
2,3, 6, 3, 1,20, 0.00,60.00,Tuesday
7,21.907500000000004
1141,21.63354775330513
1142,21.5693205907286
1143,21.31230601058968
1144,21.70711667164629
1145,21.668990416412617
2427,0.0
2469,0.0
2475,0.0
2481,0.0
2487,0.0
2657,5928.684022679408
2759,5129124.502233682
2,3, 6, 3, 1,21, 0.00,60.00,Tuesday
7,20.5225
1141,21.75112907921809
1142,21.912140982466313
1143,21.886468761398498
1144,21.8250479996015
1145,22.031617460729345
2427,0.0
2469,0.0
2475,40.0
2481,0.0
2487,65.0
2657,2286.665222261341
2759,3333930.926451894
2,3, 6, 3, 1,22, 0.00,60.00,Tuesday
7,20.8925
1141,21.716686127732637
1142,22.005772347794435
1143,22.037873732597473
1144,21.795361111243268
1145,22.092844195282596
2427,0.0
2469,55.0
2475,100.0
2481,0.0
2487,100.0
2657,5784.2498695152439
2759,5129124.502233682
2,3, 6, 3, 1,23, 0.00,60.00,Tuesday
7,21.385
1141,21.74368506404187
1142,22.004256632334135
1143,21.98456395759116
1144,21.818073082548034
1145,22.05724747611278
2427,0.0
2469,65.0
2475,25.0
2481,0.0
2487,100.0
2657,4920.999218515726
2759,5129124.502233682
2,3, 6, 3, 1,24, 0.00,60.00,Tuesday
7,21.100000000000006
1141,21.708719711828214
1142,21.957102426717044
1143,21.943324992485878
1144,21.77974095416777
1145,21.98437332072729
2427,0.0
2469,0.0
2475,0.0
2481,0.0
2487,30.0
2657,845.9163167331071
2759,1538737.3506701047
2,4, 6, 4, 1, 1, 0.00,60.00,Wednesday
7,20.8375
1141,21.677258765999555
1142,21.941331993080604
1143,21.91300899130408
1144,21.746368618710087
1145,21.9485069493741
2427,0.0
2469,0.0
2475,0.0
2481,0.0
2487,0.0
2657,0.0
2759,0.0
2,4, 6, 4, 1, 2, 0.00,60.00,Wednesday
7,20.600000000000006
1141,21.660251020179776
1142,21.943694752097085
1143,21.896093362547338
1144,21.72775590737036
1145,21.945764563764177
2427,0.0
2469,0.0
2475,0.0
2481,0.0
2487,0.0
2657,0.0
2759,0.0
2,4, 6, 4, 1, 3, 0.00,60.00,Wednesday
7,20.600000000000006
1141,21.66654008783241
1142,21.96404818278335
1143,21.89170590574168
1144,21.733364444597937
1145,21.964976878962497
2427,0.0
2469,0.0
2475,0.0
2481,0.0
2487,0.0
2657,0.0
2759,0.0
2,4, 6, 4, 1, 4, 0.00,60.00,Wednesday
7,20.285000000000005
1141,21.642616321294434
1142,21.965018197223836
1143,21.88837782366335
1144,21.70938368924598
1145,21.967771790467816
2427,0.0
2469,0.0
2475,0.0
2481,0.0
2487,0.0
2657,0.0
2759,0.0
2,4, 6, 4, 1, 5, 0.00,60.00,Wednesday
7,20.0
1141,21.569180231139556
1142,21.923539094996053
1143,21.865061816514158
1144,21.63632556219422
1145,21.93035993243314
2427,0.0
2469,0.0
2475,0.0
2481,0.0
2487,0.0
2657,0.0
2759,0.0
2,4, 6, 4, 1, 6, 0.00,60.00,Wednesday
7,20.5775
1141,21.62801741676044
1142,21.95536802627372
1143,21.869127572459445
1144,21.704300314530675
1145,21.96488762046426
2427,0.0
2469,5.0
2475,0.0
2481,0.0
2487,10.0
2657,439.1306790828613
2759,512912.4502233682
2,4, 6, 4, 1, 7, 0.00,60.00,Wednesday
7,21.6775
1141,21.009816677413278
1142,21.259800827769096
1143,21.262921499398194
1144,21.103121785128793
1145,21.282160392851119
2427,0.0
2469,1.6666666666666666
2475,0.0
2481,0.0
2487,1.6666666666666666
2657,6957.461597994906
2759,5129124.502233682
2,4, 6, 4, 1, 8, 0.00,60.00,Wednesday
7,22.514999999999998
1141,23.140269143462097
1142,23.379130241123624
1143,21.235449701516328
1144,23.196046557609415
1145,23.379849949651434
2427,85.0
2469,87.5
2475,0.0
2481,85.0
2487,87.5
2657,17001.102240490003
2759,5129124.502233682
2,4, 6, 4, 1, 9, 0.00,60.00,Wednesday
7,22.800000000000009
1141,23.97878755847592
1142,23.999221972412135
1143,21.5715912570435
1144,23.989416407071297
1145,23.99922331614366
2427,100.0
2469,100.0
2475,0.0
2481,100.0
2487,100.0
2657,22696.354920910828
2759,5129124.502233682
2,4, 6, 4, 1,10, 0.00,60.00,Wednesday
7,23.377499999999999
1141,23.999090508342815
1142,23.999052752267376
1143,21.87209674866778
1144,23.999095006509525
1145,23.99906221687673
2427,100.0
2469,100.0
2475,0.0
2481,100.0
2487,100.0
2657,23647.145395782623
2759,5129124.502233682
2,4, 6, 4, 1,11, 0.00,60.00,Wednesday
7,23.89999999999999
1141,23.99901181992801
1142,23.999003088049265
1143,22.096352665507398
1144,23.999021191193085
1145,23.999012157501928
2427,100.0
2469,100.0
2475,100.0
2481,100.0
2487,100.0
2657,24432.639782062673
2759,5129124.502233682
2,4, 6, 4, 1,12, 0.00,60.00,Wednesday
7,22.1675
1141,23.999167825941993
1142,23.999131971718119
1143,22.1934503661132
1144,23.99916090990296
1145,23.999122213386476
2427,100.0
2469,100.0
2475,100.0
2481,100.0
2487,100.0
2657,22355.52803198037
2759,5129124.502233682
2,4, 6, 4, 1,13, 0.00,60.00,Wednesday
7,20.600000000000006
1141,23.999219884625594
1142,23.9991683209615
1143,22.236062765591567
1144,23.99921011261737
1145,23.9991573223759
2427,85.0
2469,100.0
2475,100.0
2481,75.0
2487,100.0
2657,20684.11413202194
2759,5129124.502233682
2,4, 6, 4, 1,14, 0.00,60.00,Wednesday
7,19.392500000000003
1141,23.999275620056247
1142,23.99922387054886
1143,22.28644406004953
1144,23.999279837878995
1145,23.999220347944097
2427,95.0
2469,100.0
2475,100.0
2481,80.0
2487,100.0
2657,19414.944534198938
2759,5129124.502233682
2,4, 6, 4, 1,15, 0.00,60.00,Wednesday
7,18.614999999999996
1141,23.999290966802329
1142,23.999270534994399
1143,22.361251891164323
1144,23.999289897190005
1145,23.999267478788036
2427,100.0
2469,100.0
2475,100.0
2481,100.0
2487,100.0
2657,19138.621408783358
2759,5129124.502233682
2,4, 6, 4, 1,16, 0.00,60.00,Wednesday
7,19.7925
1141,23.51977350758354
1142,23.315645791368668
1143,22.35350453308227
1144,23.448302907026979
1145,23.252504449192878
2427,100.0
2469,100.0
2475,100.0
2481,100.0
2487,100.0
2657,14382.254100879578
2759,5129124.502233682
2,4, 6, 4, 1,17, 0.00,60.00,Wednesday
7,20.285000000000005
1141,22.54117582660853
1142,22.257740154553085
1143,22.02406760177488
1144,22.492182547075939
1145,22.21003966726191
2427,100.0
2469,90.0
2475,60.0
2481,100.0
2487,85.0
2657,8455.295888238954
2759,5129124.502233682
2,4, 6, 4, 1,18, 0.00,60.00,Wednesday
7,19.107500000000007
1141,21.943412870386824
1142,21.79842040718882
1143,21.713648443352527
1144,21.937484478946776
1145,21.80015142649688
2427,40.0
2469,0.0
2475,0.0
2481,40.0
2487,0.0
2657,4315.109405998168
2759,5129124.502233682
2,4, 6, 4, 1,19, 0.00,60.00,Wednesday
7,18.0375
1141,21.556410146497869
1142,21.62998354415214
1143,21.469289556557297
1144,21.581500047338989
1145,21.670517653650565
2427,0.0
2469,0.0
2475,0.0
2481,0.0
2487,0.0
2657,3618.7655567606695
2759,5129124.502233682
2,4, 6, 4, 1,20, 0.00,60.00,Wednesday
7,17.222500000000005
1141,21.3481174446717
1142,21.568693571432158
1143,21.27092252086984
1144,21.38858264289509
1145,21.6242239570655
2427,0.0
2469,0.0
2475,0.0
2481,0.0
2487,0.0
2657,3276.2932811834155
2759,5129124.502233682
2,4, 6, 4, 1,21, 0.00,60.00,Wednesday
7,16.699999999999997
1141,21.230491571205783
1142,21.670248325911666
1143,21.722460284900249
1144,21.28318781020828
1145,21.746839382417244
2427,0.0
2469,0.0
2475,0.0
2481,0.0
2487,0.0
2657,0.0
2759,0.0
2,4, 6, 4, 1,22, 0.00,60.00,Wednesday
7,16.122499999999996
1141,21.03281332783725
1142,21.622187545190639
1143,21.82228914940813
1144,21.092888781869776
1145,21.710353166583553
2427,0.0
2469,0.0
2475,0.0
2481,0.0
2487,0.0
2657,0.0
2759,0.0
2,4, 6, 4, 1,23, 0.00,60.00,Wednesday
7,14.392500000000002
1141,20.732391266426317
1142,21.43590931769958
1143,21.748974616246377
1144,20.798204591877075
1145,21.53447505535274
2427,0.0
2469,0.0
2475,0.0
2481,0.0
2487,0.0
2657,0.0
2759,0.0
2,4, 6, 4, 1,24, 0.00,60.00,Wednesday
7,13.0375
1141,20.48412050133544
1142,21.26185743841385
1143,21.641830932828627
1144,20.558479255191878
1145,21.374768995461066
2427,0.0
2469,0.0
2475,0.0
2481,0.0
2487,0.0
2657,0.0
2759,0.0
2,5, 6, 5, 1, 1, 0.00,60.00,Thursday
7,12.800000000000006
1141,20.347092944885416
1142,21.17042044453117
1143,21.542185307770134
1144,20.423405981274784
1145,21.289817993011803
2427,0.0
2469,0.0
2475,0.0
2481,0.0
2487,0.0
2657,0.0
2759,0.0
2,5, 6, 5, 1, 2, 0.00,60.00,Thursday
7,12.800000000000006
1141,20.212342103227934
1142,21.088723727596585
1143,21.460254651882737
1144,20.292757213993647
1145,21.216458841423806
2427,0.0
2469,0.0
2475,0.0
2481,0.0
2487,0.0
2657,0.0
2759,0.0
2,5, 6, 5, 1, 3, 0.00,60.00,Thursday
7,12.484999999999996
1141,20.087126541289999
1142,21.007471224221516
1143,21.390422529113665
1144,20.172259841347868
1145,21.143017541977917
2427,0.0
2469,0.0
2475,0.0
2481,0.0
2487,0.0
2657,0.0
2759,0.0
2,5, 6, 5, 1, 4, 0.00,60.00,Thursday
7,11.937499999999999
1141,20.021190636011249
1142,20.977737420854767
1143,21.327655722161205
1144,20.112038505855784
1145,21.12574540380148
2427,0.0
2469,0.0
2475,0.0
2481,0.0
2487,0.0
2657,0.0
2759,0.0
2,5, 6, 5, 1, 5, 0.00,60.00,Thursday
7,11.699999999999996
1141,19.933228361119036
1142,20.921351272820027
1143,21.265639889208349
1144,20.027082936755407
1145,21.075398328256445
2427,0.0
2469,0.0
2475,0.0
2481,0.0
2487,0.0
2657,0.0
2759,0.0
2,5, 6, 5, 1, 6, 0.00,60.00,Thursday
7,11.699999999999996
1141,19.942927980976493
1142,20.925466329720547
1143,21.25160398040947
1144,20.057399608812557
1145,21.074585038636046
2427,0.0
2469,0.0
2475,0.0
2481,0.0
2487,0.0
2657,0.0
2759,0.0
2,5, 6, 5, 1, 7, 0.00,60.00,Thursday
7,12.2775
1141,19.840746778780767
1142,20.662704818007645
1143,20.959233499631073
1144,19.96040988579354
1145,20.787302661910048
2427,0.0
2469,0.0
2475,0.0
2481,0.0
2487,0.0
2657,1655.6802681682858
2759,5129124.502233682
2,5, 6, 5, 1, 8, 0.00,60.00,Thursday
7,13.64
1141,22.23733673444683
1142,22.949384192102519
1143,21.072077635558498
1144,22.360133675106643
1145,23.08824399880736
2427,60.0
2469,77.5
2475,0.0
2481,65.0
2487,85.0
2657,9559.357689532957
2759,5129124.502233682
2,5, 6, 5, 1, 9, 0.00,60.00,Thursday
7,15.030000000000005
1141,23.44000094048272
1142,23.973536256631513
1143,21.470042136579776
1144,23.48758127827652
1145,23.996043281011859
2427,100.0
2469,100.0
2475,0.0
2481,100.0
2487,100.0
2657,13754.007383755234
2759,5129124.502233682
2,5, 6, 5, 1,10, 0.00,60.00,Thursday
7,16.177500000000003
1141,23.826529368608797
1142,23.999507335649846
1143,21.823547612857248
1144,23.819099288849587
1145,23.999491284930316
2427,100.0
2469,100.0
2475,0.0
2481,100.0
2487,100.0
2657,14756.842706429718
2759,5129124.502233682
2,5, 6, 5, 1,11, 0.00,60.00,Thursday
7,17.277499999999998
1141,23.985563127123997
1142,23.999256731252687
1143,22.063194772015863
1144,23.97971595730234
1145,23.999288419930435
2427,25.0
2469,100.0
2475,80.0
2481,30.0
2487,100.0
2657,15002.769377926053
2759,5129124.502233682
2,5, 6, 5, 1,12, 0.00,60.00,Thursday
7,18.062500000000005
1141,23.999195402212167
1142,23.99914099455841
1143,22.21499513572156
1144,23.999260447015958
1145,23.999186988315065
2427,30.0
2469,100.0
2475,100.0
2481,10.0
2487,100.0
2657,16109.186882277281
2759,5129124.502233682
2,5, 6, 5, 1,13, 0.00,60.00,Thursday
7,18.8775
1141,23.999031240890429
1142,23.999064089073398
1143,22.31221096726985
1144,23.99908348841753
1145,23.999127590189766