Program Version,EnergyPlus, Version 9.4.0-998c4b761e, YMD=2021.07.08 14:44
1,5,Environment Title[],Latitude[deg],Longitude[deg],Time Zone[],Elevation[m]
2,8,Day of Simulation[],Month[],Day of Month[],DST Indicator[1=yes 0=no],Hour[],StartMinute[],EndMinute[],DayType
3,5,Cumulative Day of Simulation[],Month[],Day of Month[],DST Indicator[1=yes 0=no],DayType  ! When Daily Meters Requested
4,2,Cumulative Days of Simulation[],Month[]  ! When Monthly Meters Requested
5,1,Cumulative Days of Simulation[] ! When Run Period Meters Requested
6,1,Calendar Year of Simulation[] ! When Annual Meters Requested
59,1,Electricity:Facility [J] !Hourly
1716,1,ElectricityNet:Facility [J] !Hourly
95,1,InteriorLights:Electricity [J] !Hourly
512,1,InteriorEquipment:Electricity [J] !Hourly
End of Data Dictionary
1,ATLANTA-HARTSFIELD.JACKSON.INTL.AP_GA_USA ANN HTG 99.6% CONDNS DB,  41.98, -87.92,  -6.00, 201.00
2,1, 1,21, 0, 1, 0.00,60.00,WinterDesignDay
59,33033130.91545926
95,0.0
512,0.0
1716,33033130.915459277
2,1, 1,21, 0, 2, 0.00,60.00,WinterDesignDay
59,33081130.91545926
95,0.0
512,0.0
1716,33081130.91545928
2,1, 1,21, 0, 3, 0.00,60.00,WinterDesignDay
59,33033130.91545926
95,0.0
512,0.0
1716,33033130.91545929
2,1, 1,21, 0, 4, 0.00,60.00,WinterDesignDay
59,33045130.91545926
95,0.0
512,0.0
1716,33045130.915459288
2,1, 1,21, 0, 5, 0.00,60.00,WinterDesignDay
59,33081130.91545926
95,0.0
512,0.0
1716,33081130.91545929
2,1, 1,21, 0, 6, 0.00,60.00,WinterDesignDay
59,33105130.91545926
95,0.0
512,0.0
1716,33105130.915459284
2,1, 1,21, 0, 7, 0.00,60.00,WinterDesignDay
59,43357390.91545926
95,0.0
512,0.0
1716,43357390.91545926
2,1, 1,21, 0, 8, 0.00,60.00,WinterDesignDay
59,30475600.91545927
95,0.0
512,0.0
1716,30475600.91545927
2,1, 1,21, 0, 9, 0.00,60.00,WinterDesignDay
59,24571990.9154593
95,0.0
512,0.0
1716,24571990.915459295
2,1, 1,21, 0,10, 0.00,60.00,WinterDesignDay
59,24595990.9154593
95,0.0
512,0.0
1716,24595990.915459288
2,1, 1,21, 0,11, 0.00,60.00,WinterDesignDay
59,24589990.9154593
95,0.0
512,0.0
1716,24589990.91545929
2,1, 1,21, 0,12, 0.00,60.00,WinterDesignDay
59,24577990.9154593
95,0.0
512,0.0
1716,24577990.915459277
2,1, 1,21, 0,13, 0.00,60.00,WinterDesignDay
59,24565990.9154593
95,0.0
512,0.0
1716,24565990.91545927
2,1, 1,21, 0,14, 0.00,60.00,WinterDesignDay
59,24607990.9154593
95,0.0
512,0.0
1716,24607990.915459288
2,1, 1,21, 0,15, 0.00,60.00,WinterDesignDay
59,24601990.9154593
95,0.0
512,0.0
1716,24601990.91545928
2,1, 1,21, 0,16, 0.00,60.00,WinterDesignDay
59,24547990.9154593
95,0.0
512,0.0
1716,24547990.91545928
2,1, 1,21, 0,17, 0.00,60.00,WinterDesignDay
59,28994650.9154593
95,0.0
512,0.0
1716,28994650.915459284
2,1, 1,21, 0,18, 0.00,60.00,WinterDesignDay
59,43399390.91545926
95,0.0
512,0.0
1716,43399390.91545926
2,1, 1,21, 0,19, 0.00,60.00,WinterDesignDay
59,43477390.91545926
95,0.0
512,0.0
1716,43477390.91545926
2,1, 1,21, 0,20, 0.00,60.00,WinterDesignDay
59,35620510.91545926
95,0.0
512,0.0
1716,35620510.915459278
2,1, 1,21, 0,21, 0.00,60.00,WinterDesignDay
59,35566510.91545926
95,0.0
512,0.0
1716,35566510.91545926
2,1, 1,21, 0,22, 0.00,60.00,WinterDesignDay
59,35584510.91545926
95,0.0
512,0.0
1716,35584510.91545927
2,1, 1,21, 0,23, 0.00,60.00,WinterDesignDay
59,35656510.91545926
95,0.0
512,0.0
1716,35656510.91545927
2,1, 1,21, 0,24, 0.00,60.00,WinterDesignDay
59,35650510.91545926
95,0.0
512,0.0
1716,35650510.91545929
1,ATLANTA-HARTSFIELD.JACKSON.INTL.AP_GA_USA ANN CLG .4% CONDNS DB=>MWB,  41.98, -87.92,  -6.00, 201.00
2,1, 7,21, 0, 1, 0.00,60.00,SummerDesignDay
59,421257252.14147326
95,152517470.7542746
512,224813060.55296675
1716,421257252.14147326
2,1, 7,21, 0, 2, 0.00,60.00,SummerDesignDay
59,420975252.14147326
95,152517470.7542746
512,224813060.55296675
1716,420975252.14147326
2,1, 7,21, 0, 3, 0.00,60.00,SummerDesignDay
59,420735252.14147326
95,152517470.7542746
512,224813060.55296675
1716,420735252.14147326
2,1, 7,21, 0, 4, 0.00,60.00,SummerDesignDay
59,420375252.14147326
95,152517470.7542746
512,224813060.55296675
1716,420375252.14147326
2,1, 7,21, 0, 5, 0.00,60.00,SummerDesignDay
59,416785459.3230991
95,151903095.9359005
512,224813060.55296675
1716,416785459.3230991
2,1, 7,21, 0, 6, 0.00,60.00,SummerDesignDay
59,389147617.4950063
95,128071818.04907707
512,224813060.55296675
1716,389147617.4950063
2,1, 7,21, 0, 7, 0.00,60.00,SummerDesignDay
59,384389497.2171419
95,120497854.10498229
512,224813060.55296675
1716,384389497.2171419
2,1, 7,21, 0, 8, 0.00,60.00,SummerDesignDay
59,387448193.4645852
95,119991185.40467149
512,224813060.55296675
1716,387448193.46458509
2,1, 7,21, 0, 9, 0.00,60.00,SummerDesignDay
59,387369917.32189658
95,119991185.40467149
512,224813060.55296675
1716,387369917.32189646
2,1, 7,21, 0,10, 0.00,60.00,SummerDesignDay
59,387715374.51859447
95,119991185.40467149
512,224813060.55296675
1716,387715374.5185943
2,1, 7,21, 0,11, 0.00,60.00,SummerDesignDay
59,388018225.0627886
95,119991185.40467149
512,224813060.55296675
1716,388018225.06278857
2,1, 7,21, 0,12, 0.00,60.00,SummerDesignDay
59,387911948.34330466
95,119991185.40467149
512,224813060.55296675
1716,387911948.3433046
2,1, 7,21, 0,13, 0.00,60.00,SummerDesignDay
59,388172529.5891751
95,119991185.40467149
512,224813060.55296675
1716,388172529.5891751
2,1, 7,21, 0,14, 0.00,60.00,SummerDesignDay
59,389006099.7054793
95,119991185.40467149
512,224813060.55296675
1716,389006099.7054792
2,1, 7,21, 0,15, 0.00,60.00,SummerDesignDay
59,389443152.34245678
95,119991185.40467149
512,224813060.55296675
1716,389443152.34245678
2,1, 7,21, 0,16, 0.00,60.00,SummerDesignDay
59,389118332.1566542
95,119991185.40467149
512,224813060.55296675
1716,389118332.1566542
2,1, 7,21, 0,17, 0.00,60.00,SummerDesignDay
59,388232401.12763389
95,119991185.40467149
512,224813060.55296675
1716,388232401.1276338
2,1, 7,21, 0,18, 0.00,60.00,SummerDesignDay
59,387824185.43141308
95,120633945.22274417
512,224813060.55296675
1716,387824185.43141296
2,1, 7,21, 0,19, 0.00,60.00,SummerDesignDay
59,396308557.92661896
95,130861359.31742129
512,224813060.55296675
1716,396308557.92661896
2,1, 7,21, 0,20, 0.00,60.00,SummerDesignDay
59,424726379.81608369
95,152399856.5668155
512,224813060.55296675
1716,424726379.81608358
2,1, 7,21, 0,21, 0.00,60.00,SummerDesignDay
59,427983405.35642859
95,152517470.7542746
512,224813060.55296675
1716,427983405.3564285
2,1, 7,21, 0,22, 0.00,60.00,SummerDesignDay
59,427915238.3264142
95,152517470.7542746
512,224813060.55296675
1716,427915238.3264141
2,1, 7,21, 0,23, 0.00,60.00,SummerDesignDay
59,424096632.14147326
95,152517470.7542746
512,224813060.55296675
1716,424096632.14147326
2,1, 7,21, 0,24, 0.00,60.00,SummerDesignDay
59,423922632.14147326
95,152517470.7542746
512,224813060.55296675
1716,423922632.14147326
1,RUNPERIOD 1,  41.98, -87.92,  -6.00, 201.00
2,1, 6, 1, 0, 1, 0.00,60.00,Monday
59,78819853.32476583
95,7625873.53771374
512,44533202.00181081
1716,78819853.32476583
2,1, 6, 1, 0, 2, 0.00,60.00,Monday
59,69955398.5334814
95,7625873.53771374
512,44533202.00181081
1716,69955398.5334814
2,1, 6, 1, 0, 3, 0.00,60.00,Monday
59,73761130.56512292
95,7625873.53771374
512,44533202.00181081
1716,73761130.56512292
2,1, 6, 1, 0, 4, 0.00,60.00,Monday
59,79069737.21200608
95,7625873.53771374
512,44533202.00181081
1716,79069737.21200608
2,1, 6, 1, 0, 5, 0.00,60.00,Monday
59,66864500.76175459
95,7591463.283306486
512,44533202.00181081
1716,66864500.76175459
2,1, 6, 1, 0, 6, 0.00,60.00,Monday
59,76423790.94767243
95,13781253.930334909
512,44533202.00181081
1716,76423790.94767243
2,1, 6, 1, 0, 7, 0.00,60.00,Monday
59,93292005.81279227
95,10642158.404433685
512,55180531.87831209
1716,93292005.81279227
2,1, 6, 1, 0, 8, 0.00,60.00,Monday
59,159708860.50973103
95,31063997.337583778
512,95796493.41677362
1716,159708860.50973077
2,1, 6, 1, 0, 9, 0.00,60.00,Monday
59,333954219.4632484
95,93124323.85391505
512,204227663.7591696
1716,333954219.4632483
2,1, 6, 1, 0,10, 0.00,60.00,Monday
59,303896458.7239481
95,93124323.85391505
512,174055806.61631225
1716,303896458.7239481
2,1, 6, 1, 0,11, 0.00,60.00,Monday
59,296533255.64959618
95,93124323.85391505
512,167093070.3525762
1716,296533255.6495961
2,1, 6, 1, 0,12, 0.00,60.00,Monday
59,304083949.4590159
95,93124323.85391505
512,174055806.61631225
1716,304083949.45901587
2,1, 6, 1, 0,13, 0.00,60.00,Monday
59,306884427.060563
95,93124323.85391505
512,177667514.30607493
1716,306884427.06056299
2,1, 6, 1, 0,14, 0.00,60.00,Monday
59,310934207.8133301
95,93124323.85391505
512,179858086.83609239
1716,310934207.81333
2,1, 6, 1, 0,15, 0.00,60.00,Monday
59,298674767.35330328
95,93124323.85391505
512,167093070.3525762
1716,298674767.3533032
2,1, 6, 1, 0,16, 0.00,60.00,Monday
59,298993580.3600787
95,93124323.85391505
512,167093070.3525762
1716,298993580.3600787
2,1, 6, 1, 0,17, 0.00,60.00,Monday
59,310147433.32806989
95,93312593.52151679
512,177537174.74818046
1716,310147433.32806989
2,1, 6, 1, 0,18, 0.00,60.00,Monday
59,229948157.85423366
95,52916249.32147222
512,140923939.57316477
1716,229948157.85423366
2,1, 6, 1, 0,19, 0.00,60.00,Monday
59,136616791.00492037
95,34101110.27107747
512,69106004.40578471
1716,136616791.00492034
2,1, 6, 1, 0,20, 0.00,60.00,Monday
59,139794096.3747494
95,39152827.48638166
512,59822356.054136309
1716,139794096.3747494
2,1, 6, 1, 0,21, 0.00,60.00,Monday
59,117795300.327852
95,26303943.895732464
512,59822356.054136309
1716,117795300.327852
2,1, 6, 1, 0,22, 0.00,60.00,Monday
59,115613472.4316883
95,26303943.895732464
512,55180531.87831209
1716,115613472.4316883
2,1, 6, 1, 0,23, 0.00,60.00,Monday
59,107340223.24346511
95,13151971.947866232
512,55180531.87831209
1716,107340223.24346511
2,1, 6, 1, 0,24, 0.00,60.00,Monday
59,100746237.26953186
95,6575985.973933116
512,55180531.87831209
1716,100746237.26953186
2,2, 6, 2, 0, 1, 0.00,60.00,Tuesday
59,78819853.32476583
95,7625873.53771374
512,44533202.00181081
1716,78819853.32476583
2,2, 6, 2, 0, 2, 0.00,60.00,Tuesday
59,64923452.82031766
95,7625873.53771374
512,44533202.00181081
1716,64923452.82031766
2,2, 6, 2, 0, 3, 0.00,60.00,Tuesday
59,71551711.12892162
95,7625873.53771374
512,44533202.00181081
1716,71551711.12892162
2,2, 6, 2, 0, 4, 0.00,60.00,Tuesday
59,68016640.0309995
95,7625873.53771374
512,44533202.00181081
1716,68016640.0309995
2,2, 6, 2, 0, 5, 0.00,60.00,Tuesday
59,67848581.5187877
95,7391411.3786188079
512,44533202.00181081
1716,67848581.5187877
2,2, 6, 2, 0, 6, 0.00,60.00,Tuesday
59,84109213.28085242
95,12466695.748995169
512,44533202.00181081
1716,84109213.28085242
2,2, 6, 2, 0, 7, 0.00,60.00,Tuesday
59,94449866.1545204
95,10422134.858921607
512,55180531.87831209
1716,94449866.1545204
2,2, 6, 2, 0, 8, 0.00,60.00,Tuesday
59,160707638.1033514
95,31041441.28463835
512,95796493.41677362
1716,160707638.10335136
2,2, 6, 2, 0, 9, 0.00,60.00,Tuesday
59,334341782.3240182
95,93124323.85391505
512,204227663.7591696
1716,334341782.3240182
2,2, 6, 2, 0,10, 0.00,60.00,Tuesday
59,304205046.54157379
95,93124323.85391505
512,174055806.61631225
1716,304205046.54157379
2,2, 6, 2, 0,11, 0.00,60.00,Tuesday
59,297028619.22687998
95,93124323.85391505
512,167093070.3525762
1716,297028619.22687998
2,2, 6, 2, 0,12, 0.00,60.00,Tuesday
59,304380222.983041
95,93124323.85391505
512,174055806.61631225
1716,304380222.9830409
2,2, 6, 2, 0,13, 0.00,60.00,Tuesday
59,307988595.34218409
95,93124323.85391505
512,177667514.30607493
1716,307988595.34218409
2,2, 6, 2, 0,14, 0.00,60.00,Tuesday
59,310940968.2698595
95,93124323.85391505
512,179858086.83609239
1716,310940968.26985946
2,2, 6, 2, 0,15, 0.00,60.00,Tuesday
59,297803629.169831
95,93124323.85391505
512,167093070.3525762
1716,297803629.169831
2,2, 6, 2, 0,16, 0.00,60.00,Tuesday
59,297583405.3607052
95,93133991.36789204
512,167093070.3525762
1716,297583405.3607052
2,2, 6, 2, 0,17, 0.00,60.00,Tuesday
59,308809273.8680272
95,93559746.61659938
512,177537174.74818046
1716,308809273.8680271
2,2, 6, 2, 0,18, 0.00,60.00,Tuesday
59,228307304.0661684
95,52740507.402017209
512,140923939.57316477
1716,228307304.0661684
2,2, 6, 2, 0,19, 0.00,60.00,Tuesday
59,135775610.85890753
95,34330025.61889131
512,69106004.40578471
1716,135775610.85890753
2,2, 6, 2, 0,20, 0.00,60.00,Tuesday
59,139376859.31428559
95,39225532.42591783
512,59822356.054136309
1716,139376859.31428559
2,2, 6, 2, 0,21, 0.00,60.00,Tuesday
59,129214400.78410042
95,26303943.895732464
512,59822356.054136309
1716,129214400.78410042
2,2, 6, 2, 0,22, 0.00,60.00,Tuesday
59,115513588.54444804
95,26303943.895732464
512,55180531.87831209
1716,115513588.54444804
2,2, 6, 2, 0,23, 0.00,60.00,Tuesday
59,107340223.24346511
95,13151971.947866232
512,55180531.87831209
1716,107340223.24346511
2,2, 6, 2, 0,24, 0.00,60.00,Tuesday
59,100764237.26953186
95,6575985.973933116
512,55180531.87831209
1716,100764237.26953186
End of Data
 Number of Records Written=         384
