Program Version,EnergyPlus, Version 9.4.0-998c4b761e, YMD=2021.07.01 15:49
1,5,Environment Title[],Latitude[deg],Longitude[deg],Time Zone[],Elevation[m]
2,8,Day of Simulation[],Month[],Day of Month[],DST Indicator[1=yes 0=no],Hour[],StartMinute[],EndMinute[],DayType
3,5,Cumulative Day of Simulation[],Month[],Day of Month[],DST Indicator[1=yes 0=no],DayType  ! When Daily Meters Requested
4,2,Cumulative Days of Simulation[],Month[]  ! When Monthly Meters Requested
5,1,Cumulative Days of Simulation[] ! When Run Period Meters Requested
6,1,Calendar Year of Simulation[] ! When Annual Meters Requested
59,1,Electricity:Facility [J] !Hourly
1716,1,ElectricityNet:Facility [J] !Hourly
95,1,InteriorLights:Electricity [J] !Hourly
512,1,InteriorEquipment:Electricity [J] !Hourly
End of Data Dictionary
1,ATLANTA-HARTSFIELD.JACKSON.INTL.AP_GA_USA ANN HTG 99.6% CONDNS DB,  41.98, -87.92,  -6.00, 201.00
2,1, 1,21, 0, 1, 0.00,60.00,WinterDesignDay
59,29917803.10897668
95,0.0
512,0.0
1716,29917803.10897668
2,1, 1,21, 0, 2, 0.00,60.00,WinterDesignDay
59,29899803.10897668
95,0.0
512,0.0
1716,29899803.10897668
2,1, 1,21, 0, 3, 0.00,60.00,WinterDesignDay
59,29857803.10897668
95,0.0
512,0.0
1716,29857803.10897668
2,1, 1,21, 0, 4, 0.00,60.00,WinterDesignDay
59,29851803.10897668
95,0.0
512,0.0
1716,29851803.10897668
2,1, 1,21, 0, 5, 0.00,60.00,WinterDesignDay
59,29881803.10897668
95,0.0
512,0.0
1716,29881803.10897668
2,1, 1,21, 0, 6, 0.00,60.00,WinterDesignDay
59,29923803.10897668
95,0.0
512,0.0
1716,29923803.10897668
2,1, 1,21, 0, 7, 0.00,60.00,WinterDesignDay
59,39540063.10897667
95,0.0
512,0.0
1716,39540063.10897667
2,1, 1,21, 0, 8, 0.00,60.00,WinterDesignDay
59,27114273.108976678
95,0.0
512,0.0
1716,27114273.108976678
2,1, 1,21, 0, 9, 0.00,60.00,WinterDesignDay
59,21102663.1089767
95,0.0
512,0.0
1716,21102663.1089767
2,1, 1,21, 0,10, 0.00,60.00,WinterDesignDay
59,21222663.1089767
95,0.0
512,0.0
1716,21222663.1089767
2,1, 1,21, 0,11, 0.00,60.00,WinterDesignDay
59,21180663.1089767
95,0.0
512,0.0
1716,21180663.1089767
2,1, 1,21, 0,12, 0.00,60.00,WinterDesignDay
59,21240663.1089767
95,0.0
512,0.0
1716,21240663.1089767
2,1, 1,21, 0,13, 0.00,60.00,WinterDesignDay
59,21252663.1089767
95,0.0
512,0.0
1716,21252663.1089767
2,1, 1,21, 0,14, 0.00,60.00,WinterDesignDay
59,21144663.1089767
95,0.0
512,0.0
1716,21144663.1089767
2,1, 1,21, 0,15, 0.00,60.00,WinterDesignDay
59,21108663.1089767
95,0.0
512,0.0
1716,21108663.1089767
2,1, 1,21, 0,16, 0.00,60.00,WinterDesignDay
59,21162663.1089767
95,0.0
512,0.0
1716,21162663.1089767
2,1, 1,21, 0,17, 0.00,60.00,WinterDesignDay
59,25597323.1089767
95,0.0
512,0.0
1716,25597323.1089767
2,1, 1,21, 0,18, 0.00,60.00,WinterDesignDay
59,40110063.10897667
95,0.0
512,0.0
1716,40110063.10897667
2,1, 1,21, 0,19, 0.00,60.00,WinterDesignDay
59,40770063.10897667
95,0.0
512,0.0
1716,40770063.10897667
2,1, 1,21, 0,20, 0.00,60.00,WinterDesignDay
59,32349183.108976678
95,0.0
512,0.0
1716,32349183.108976678
2,1, 1,21, 0,21, 0.00,60.00,WinterDesignDay
59,32367183.108976678
95,0.0
512,0.0
1716,32367183.108976678
2,1, 1,21, 0,22, 0.00,60.00,WinterDesignDay
59,32349183.108976678
95,0.0
512,0.0
1716,32349183.108976678
2,1, 1,21, 0,23, 0.00,60.00,WinterDesignDay
59,32427183.108976678
95,0.0
512,0.0
1716,32427183.108976678
2,1, 1,21, 0,24, 0.00,60.00,WinterDesignDay
59,32451183.108976678
95,0.0
512,0.0
1716,32451183.108976678
1,ATLANTA-HARTSFIELD.JACKSON.INTL.AP_GA_USA ANN CLG .4% CONDNS DB=>MWB,  41.98, -87.92,  -6.00, 201.00
2,1, 7,21, 0, 1, 0.00,60.00,SummerDesignDay
59,420344752.782948
95,152517470.7542746
512,224813060.55296675
1716,420344752.782948
2,1, 7,21, 0, 2, 0.00,60.00,SummerDesignDay
59,420434752.782948
95,152517470.7542746
512,224813060.55296675
1716,420434752.782948
2,1, 7,21, 0, 3, 0.00,60.00,SummerDesignDay
59,420428752.782948
95,152517470.7542746
512,224813060.55296675
1716,420428752.782948
2,1, 7,21, 0, 4, 0.00,60.00,SummerDesignDay
59,420428752.782948
95,152517470.7542746
512,224813060.55296675
1716,420428752.782948
2,1, 7,21, 0, 5, 0.00,60.00,SummerDesignDay
59,416760959.96457406
95,151903095.9359005
512,224813060.55296675
1716,416760959.96457406
2,1, 7,21, 0, 6, 0.00,60.00,SummerDesignDay
59,389367863.3495681
95,128071818.04907707
512,224813060.55296675
1716,389367863.3495681
2,1, 7,21, 0, 7, 0.00,60.00,SummerDesignDay
59,383971822.528234
95,120497854.10498229
512,224813060.55296675
1716,383971822.528234
2,1, 7,21, 0, 8, 0.00,60.00,SummerDesignDay
59,386995829.2157742
95,119991185.40467149
512,224813060.55296675
1716,386995829.2157742
2,1, 7,21, 0, 9, 0.00,60.00,SummerDesignDay
59,386929869.74742016
95,119991185.40467149
512,224813060.55296675
1716,386929869.74742016
2,1, 7,21, 0,10, 0.00,60.00,SummerDesignDay
59,387374780.68728128
95,119991185.40467149
512,224813060.55296675
1716,387374780.68728128
2,1, 7,21, 0,11, 0.00,60.00,SummerDesignDay
59,387627436.27423879
95,119991185.40467149
512,224813060.55296675
1716,387627436.2742387
2,1, 7,21, 0,12, 0.00,60.00,SummerDesignDay
59,387463486.342096
95,119991185.40467149
512,224813060.55296675
1716,387463486.342096
2,1, 7,21, 0,13, 0.00,60.00,SummerDesignDay
59,387691683.002933
95,119991185.40467149
512,224813060.55296675
1716,387691683.00293299
2,1, 7,21, 0,14, 0.00,60.00,SummerDesignDay
59,388461719.89422896
95,119991185.40467149
512,224813060.55296675
1716,388461719.89422896
2,1, 7,21, 0,15, 0.00,60.00,SummerDesignDay
59,388858596.07844969
95,119991185.40467149
512,224813060.55296675
1716,388858596.07844969
2,1, 7,21, 0,16, 0.00,60.00,SummerDesignDay
59,388560472.5076326
95,119991185.40467149
512,224813060.55296675
1716,388560472.5076326
2,1, 7,21, 0,17, 0.00,60.00,SummerDesignDay
59,387659795.76427707
95,119991185.40467149
512,224813060.55296675
1716,387659795.76427707
2,1, 7,21, 0,18, 0.00,60.00,SummerDesignDay
59,387236150.98291739
95,120633945.22274417
512,224813060.55296675
1716,387236150.98291739
2,1, 7,21, 0,19, 0.00,60.00,SummerDesignDay
59,395954804.11323717
95,130861359.31742129
512,224813060.55296675
1716,395954804.1132371
2,1, 7,21, 0,20, 0.00,60.00,SummerDesignDay
59,424219136.16881409
95,152399856.5668155
512,224813060.55296675
1716,424219136.168814
2,1, 7,21, 0,21, 0.00,60.00,SummerDesignDay
59,427391656.69808468
95,152517470.7542746
512,224813060.55296675
1716,427391656.69808468
2,1, 7,21, 0,22, 0.00,60.00,SummerDesignDay
59,427474197.59474787
95,152517470.7542746
512,224813060.55296675
1716,427474197.59474787
2,1, 7,21, 0,23, 0.00,60.00,SummerDesignDay
59,423880132.782948
95,152517470.7542746
512,224813060.55296675
1716,423880132.782948
2,1, 7,21, 0,24, 0.00,60.00,SummerDesignDay
59,423190132.782948
95,152517470.7542746
512,224813060.55296675
1716,423190132.782948
1,RUNPERIOD 1,  41.98, -87.92,  -6.00, 201.00
2,1, 6, 1, 0, 1, 0.00,60.00,Monday
59,87259141.95480199
95,7625873.53771374
512,44533202.00181081
1716,87259141.95480199
2,1, 6, 1, 0, 2, 0.00,60.00,Monday
59,86947141.95480199
95,7625873.53771374
512,44533202.00181081
1716,86947141.95480199
2,1, 6, 1, 0, 3, 0.00,60.00,Monday
59,86929141.95480199
95,7625873.53771374
512,44533202.00181081
1716,86929141.95480199
2,1, 6, 1, 0, 4, 0.00,60.00,Monday
59,70680103.99871417
95,7625873.53771374
512,44533202.00181081
1716,70680103.99871417
2,1, 6, 1, 0, 5, 0.00,60.00,Monday
59,81932047.70039477
95,7591463.283306486
512,44533202.00181081
1716,81932047.70039477
2,1, 6, 1, 0, 6, 0.00,60.00,Monday
59,84815382.34742318
95,13781253.930334909
512,44533202.00181081
1716,84815382.34742318
2,1, 6, 1, 0, 7, 0.00,60.00,Monday
59,92425616.69802343
95,10642158.404433685
512,55180531.87831209
1716,92425616.69802343
2,1, 6, 1, 0, 8, 0.00,60.00,Monday
59,158791785.7677881
95,31063997.337583778
512,95796493.41677362
1716,158791785.76778803
2,1, 6, 1, 0, 9, 0.00,60.00,Monday
59,333040446.5802408
95,93124323.85391505
512,204227663.7591696
1716,333040446.5802408
2,1, 6, 1, 0,10, 0.00,60.00,Monday
59,303292068.93341347
95,93124323.85391505
512,174055806.61631225
1716,303292068.93341347
2,1, 6, 1, 0,11, 0.00,60.00,Monday
59,296675888.12607207
95,93124323.85391505
512,167093070.3525762
1716,296675888.1260721
2,1, 6, 1, 0,12, 0.00,60.00,Monday
59,304184915.4050149
95,93124323.85391505
512,174055806.61631225
1716,304184915.4050149
2,1, 6, 1, 0,13, 0.00,60.00,Monday
59,306875682.2389127
95,93124323.85391505
512,177667514.30607493
1716,306875682.2389127
2,1, 6, 1, 0,14, 0.00,60.00,Monday
59,310609013.9935399
95,93124323.85391505
512,179858086.83609239
1716,310609013.9935399
2,1, 6, 1, 0,15, 0.00,60.00,Monday
59,298364632.50431409
95,93124323.85391505
512,167093070.3525762
1716,298364632.504314
2,1, 6, 1, 0,16, 0.00,60.00,Monday
59,298483015.4363857
95,93124323.85391505
512,167093070.3525762
1716,298483015.4363857
2,1, 6, 1, 0,17, 0.00,60.00,Monday
59,309636354.9578007
95,93312593.52151679
512,177537174.74818046
1716,309636354.9578007
2,1, 6, 1, 0,18, 0.00,60.00,Monday
59,229822601.10009826
95,52916249.32147222
512,140923939.57316477
1716,229822601.10009823
2,1, 6, 1, 0,19, 0.00,60.00,Monday
59,136459405.51031838
95,34101110.27107747
512,69106004.40578471
1716,136459405.51031838
2,1, 6, 1, 0,20, 0.00,60.00,Monday
59,139169597.01622427
95,39152827.48638166
512,59822356.054136309
1716,139169597.01622427
2,1, 6, 1, 0,21, 0.00,60.00,Monday
59,128589901.4255753
95,26303943.895732464
512,59822356.054136309
1716,128589901.4255753
2,1, 6, 1, 0,22, 0.00,60.00,Monday
59,119423922.1893221
95,26303943.895732464
512,55180531.87831209
1716,119423922.1893221
2,1, 6, 1, 0,23, 0.00,60.00,Monday
59,106613950.2414557
95,13151971.947866232
512,55180531.87831209
1716,106613950.2414557
2,1, 6, 1, 0,24, 0.00,60.00,Monday
59,99611964.26752277
95,6575985.973933116
512,55180531.87831209
1716,99611964.26752277
2,2, 6, 2, 0, 1, 0.00,60.00,Tuesday
59,87259141.95480199
95,7625873.53771374
512,44533202.00181081
1716,87259141.95480199
2,2, 6, 2, 0, 2, 0.00,60.00,Tuesday
59,86887141.95480199
95,7625873.53771374
512,44533202.00181081
1716,86887141.95480199
2,2, 6, 2, 0, 3, 0.00,60.00,Tuesday
59,86935141.95480199
95,7625873.53771374
512,44533202.00181081
1716,86935141.95480199
2,2, 6, 2, 0, 4, 0.00,60.00,Tuesday
59,86899141.95480199
95,7625873.53771374
512,44533202.00181081
1716,86899141.95480199
2,2, 6, 2, 0, 5, 0.00,60.00,Tuesday
59,81422476.79570709
95,7391411.3786188079
512,44533202.00181081
1716,81422476.79570709
2,2, 6, 2, 0, 6, 0.00,60.00,Tuesday
59,83734824.16608337
95,12466695.748995169
512,44533202.00181081
1716,83734824.16608337
2,2, 6, 2, 0, 7, 0.00,60.00,Tuesday
59,93999593.1525113
95,10422134.858921607
512,55180531.87831209
1716,93999593.1525113
2,2, 6, 2, 0, 8, 0.00,60.00,Tuesday
59,160176681.68033455
95,31041441.28463835
512,95796493.41677362
1716,160176681.68033455
2,2, 6, 2, 0, 9, 0.00,60.00,Tuesday
59,333382624.99540218
95,93124323.85391505
512,204227663.7591696
1716,333382624.99540218
2,2, 6, 2, 0,10, 0.00,60.00,Tuesday
59,303755894.5774142
95,93124323.85391505
512,174055806.61631225
1716,303755894.5774142
2,2, 6, 2, 0,11, 0.00,60.00,Tuesday
59,296765347.32358196
95,93124323.85391505
512,167093070.3525762
1716,296765347.3235819
2,2, 6, 2, 0,12, 0.00,60.00,Tuesday
59,303847763.5639815
95,93124323.85391505
512,174055806.61631225
1716,303847763.5639815
2,2, 6, 2, 0,13, 0.00,60.00,Tuesday
59,307772994.8112331
95,93124323.85391505
512,177667514.30607493
1716,307772994.8112331
2,2, 6, 2, 0,14, 0.00,60.00,Tuesday
59,310281330.27917048
95,93124323.85391505
512,179858086.83609239
1716,310281330.27917048
2,2, 6, 2, 0,15, 0.00,60.00,Tuesday
59,297138097.9714729
95,93124323.85391505
512,167093070.3525762
1716,297138097.9714729
2,2, 6, 2, 0,16, 0.00,60.00,Tuesday
59,297015593.2526065
95,93133991.36789204
512,167093070.3525762
1716,297015593.2526065
2,2, 6, 2, 0,17, 0.00,60.00,Tuesday
59,308317874.425027
95,93559746.61659938
512,177537174.74818046
1716,308317874.425027
2,2, 6, 2, 0,18, 0.00,60.00,Tuesday
59,228276170.80110047
95,52740507.402017209
512,140923939.57316477
1716,228276170.80110047
2,2, 6, 2, 0,19, 0.00,60.00,Tuesday
59,135499111.50038249
95,34330025.61889131
512,69106004.40578471
1716,135499111.50038249
2,2, 6, 2, 0,20, 0.00,60.00,Tuesday
59,138752359.95576043
95,39225532.42591783
512,59822356.054136309
1716,138752359.95576043
2,2, 6, 2, 0,21, 0.00,60.00,Tuesday
59,128589901.4255753
95,26303943.895732464
512,59822356.054136309
1716,128589901.4255753
2,2, 6, 2, 0,22, 0.00,60.00,Tuesday
59,119519922.1893221
95,26303943.895732464
512,55180531.87831209
1716,119519922.1893221
2,2, 6, 2, 0,23, 0.00,60.00,Tuesday
59,106673950.2414557
95,13151971.947866232
512,55180531.87831209
1716,106673950.2414557
2,2, 6, 2, 0,24, 0.00,60.00,Tuesday
59,100013964.26752277
95,6575985.973933116
512,55180531.87831209
1716,100013964.26752277
End of Data
 Number of Records Written=         384
