Program Version,EnergyPlus, Version 9.4.0-998c4b761e, YMD=2021.07.08 03:15
1,5,Environment Title[],Latitude[deg],Longitude[deg],Time Zone[],Elevation[m]
2,8,Day of Simulation[],Month[],Day of Month[],DST Indicator[1=yes 0=no],Hour[],StartMinute[],EndMinute[],DayType
3,5,Cumulative Day of Simulation[],Month[],Day of Month[],DST Indicator[1=yes 0=no],DayType  ! When Daily Report Variables Requested
4,2,Cumulative Days of Simulation[],Month[]  ! When Monthly Report Variables Requested
5,1,Cumulative Days of Simulation[] ! When Run Period Report Variables Requested
6,1,Calendar Year of Simulation[] ! When Annual Report Variables Requested
769,1,PERIMETER_TOP_ZN_1,Zone Mean Air Temperature [C] !Hourly
2050,1,PERI1_TOP_LOTEMP,Zone Radiant HVAC Cooling Rate [W] !Hourly
2053,1,PERI1_TOP_LOTEMP,Zone Radiant HVAC Mass Flow Rate [kg/s] !Hourly
2054,1,PERI1_TOP_LOTEMP,Zone Radiant HVAC Injection Mass Flow Rate [kg/s] !Hourly
2055,1,PERI1_TOP_LOTEMP,Zone Radiant HVAC Recirculation Mass Flow Rate [kg/s] !Hourly
2056,1,PERI1_TOP_LOTEMP,Zone Radiant HVAC Inlet Temperature [C] !Hourly
2057,1,PERI1_TOP_LOTEMP,Zone Radiant HVAC Outlet Temperature [C] !Hourly
2063,1,PERI2_TOP_LOTEMP,Zone Radiant HVAC Outlet Temperature [C] !Hourly
2285,1,PERI1_TOP_LOTEMP_CHW_INLET,System Node Temperature [C] !Hourly
2286,1,PERI1_TOP_LOTEMP_CHW_OUTLET,System Node Temperature [C] !Hourly
End of Data Dictionary
1,ATLANTA-HARTSFIELD.JACKSON.INTL.AP_GA_USA ANN HTG 99.6% CONDNS DB,  41.98, -87.92,  -6.00, 201.00
2,1, 1,21, 0, 1, 0.00,60.00,WinterDesignDay
769,13.407002486817938
2050,0.0
2053,0.0
2054,0.0
2055,0.0
2056,15.0
2057,15.0
2063,25.28637357788024
2285,12.20000000000001
2286,12.20000000000001
2,1, 1,21, 0, 2, 0.00,60.00,WinterDesignDay
769,13.39567357350672
2050,0.0
2053,0.0
2054,0.0
2055,0.0
2056,15.0
2057,15.0
2063,24.84087054694132
2285,12.20000000000001
2286,12.20000000000001
2,1, 1,21, 0, 3, 0.00,60.00,WinterDesignDay
769,13.385288110877545
2050,0.0
2053,0.0
2054,0.0
2055,0.0
2056,15.0
2057,15.0
2063,25.327283618912689
2285,12.20000000000001
2286,12.20000000000001
2,1, 1,21, 0, 4, 0.00,60.00,WinterDesignDay
769,13.375912109137177
2050,0.0
2053,0.0
2054,0.0
2055,0.0
2056,15.0
2057,15.0
2063,25.282733249972219
2285,12.20000000000001
2286,12.20000000000001
2,1, 1,21, 0, 5, 0.00,60.00,WinterDesignDay
769,13.367303687839942
2050,0.0
2053,0.0
2054,0.0
2055,0.0
2056,15.0
2057,15.0
2063,25.083996009554164
2285,12.20000000000001
2286,12.20000000000001
2,1, 1,21, 0, 6, 0.00,60.00,WinterDesignDay
769,13.359413524363993
2050,0.0
2053,0.0
2054,0.0
2055,0.0
2056,15.0
2057,15.0
2063,24.85109091552678
2285,12.20000000000001
2286,12.20000000000001
2,1, 1,21, 0, 7, 0.00,60.00,WinterDesignDay
769,13.751508992866614
2050,0.0
2053,0.0
2054,0.0
2055,0.0
2056,15.0
2057,15.0
2063,27.824534164796846
2285,12.20000000000001
2286,12.20000000000001
2,1, 1,21, 0, 8, 0.00,60.00,WinterDesignDay
769,13.840722040162598
2050,0.0
2053,0.0
2054,0.0
2055,0.0
2056,15.0
2057,15.0
2063,26.84676528473674
2285,12.20000000000001
2286,12.20000000000001
2,1, 1,21, 0, 9, 0.00,60.00,WinterDesignDay
769,13.863585614453865
2050,0.0
2053,0.0
2054,0.0
2055,0.0
2056,15.0
2057,15.0
2063,26.312880257464387
2285,12.20000000000001
2286,12.20000000000001
2,1, 1,21, 0,10, 0.00,60.00,WinterDesignDay
769,13.880642626127744
2050,0.0
2053,0.0
2054,0.0
2055,0.0
2056,15.0
2057,15.0
2063,25.536840872215284
2285,12.20000000000001
2286,12.20000000000001
2,1, 1,21, 0,11, 0.00,60.00,WinterDesignDay
769,13.895176458987887
2050,0.0
2053,0.0
2054,0.0
2055,0.0
2056,15.0
2057,15.0
2063,25.533392384907019
2285,12.20000000000001
2286,12.20000000000001
2,1, 1,21, 0,12, 0.00,60.00,WinterDesignDay
769,13.908043727908597
2050,0.0
2053,0.0
2054,0.0
2055,0.0
2056,15.0
2057,15.0
2063,25.539723836766329
2285,12.20000000000001
2286,12.20000000000001
2,1, 1,21, 0,13, 0.00,60.00,WinterDesignDay
769,13.919573123712459
2050,0.0
2053,0.0
2054,0.0
2055,0.0
2056,15.0
2057,15.0
2063,25.548486481853737
2285,12.20000000000001
2286,12.20000000000001
2,1, 1,21, 0,14, 0.00,60.00,WinterDesignDay
769,13.929953965619303
2050,0.0
2053,0.0
2054,0.0
2055,0.0
2056,15.0
2057,15.0
2063,26.566844029860588
2285,12.20000000000001
2286,12.20000000000001
2,1, 1,21, 0,15, 0.00,60.00,WinterDesignDay
769,13.939335652059146
2050,0.0
2053,0.0
2054,0.0
2055,0.0
2056,15.0
2057,15.0
2063,26.82824620333815
2285,12.20000000000001
2286,12.20000000000001
2,1, 1,21, 0,16, 0.00,60.00,WinterDesignDay
769,13.947832907970837
2050,0.0
2053,0.0
2054,0.0
2055,0.0
2056,15.0
2057,15.0
2063,25.579700763985739
2285,12.20000000000001
2286,12.20000000000001
2,1, 1,21, 0,17, 0.00,60.00,WinterDesignDay
769,13.955584527666395
2050,0.0
2053,0.0
2054,0.0
2055,0.0
2056,15.0
2057,15.0
2063,25.584742681254224
2285,12.20000000000001
2286,12.20000000000001
2,1, 1,21, 0,18, 0.00,60.00,WinterDesignDay
769,13.96262378334549
2050,0.0
2053,0.0
2054,0.0
2055,0.0
2056,15.0
2057,15.0
2063,25.537777149921245
2285,12.20000000000001
2286,12.20000000000001
2,1, 1,21, 0,19, 0.00,60.00,WinterDesignDay
769,13.566642012161527
2050,0.0
2053,0.0
2054,0.0
2055,0.0
2056,15.0
2057,15.0
2063,23.367260722866619
2285,12.20000000000001
2286,12.20000000000001
2,1, 1,21, 0,20, 0.00,60.00,WinterDesignDay
769,13.47941796529331
2050,0.0
2053,0.0
2054,0.0
2055,0.0
2056,15.0
2057,15.0
2063,25.33131632999492
2285,12.20000000000001
2286,12.20000000000001
2,1, 1,21, 0,21, 0.00,60.00,WinterDesignDay
769,13.454997975272054
2050,0.0
2053,0.0
2054,0.0
2055,0.0
2056,15.0
2057,15.0
2063,25.341674715746135
2285,12.20000000000001
2286,12.20000000000001
2,1, 1,21, 0,22, 0.00,60.00,WinterDesignDay
769,13.437081552188172
2050,0.0
2053,0.0
2054,0.0
2055,0.0
2056,15.0
2057,15.0
2063,25.59032005898532
2285,12.20000000000001
2286,12.20000000000001
2,1, 1,21, 0,23, 0.00,60.00,WinterDesignDay
769,13.421868193089202
2050,0.0
2053,0.0
2054,0.0
2055,0.0
2056,15.0
2057,15.0
2063,25.063867099607398
2285,12.20000000000001
2286,12.20000000000001
2,1, 1,21, 0,24, 0.00,60.00,WinterDesignDay
769,13.408388227425523
2050,0.0
2053,0.0
2054,0.0
2055,0.0
2056,15.0
2057,15.0
2063,25.05368646712595
2285,12.20000000000001
2286,12.20000000000001
1,ATLANTA-HARTSFIELD.JACKSON.INTL.AP_GA_USA ANN CLG .4% CONDNS DB=>MWB,  41.98, -87.92,  -6.00, 201.00
2,1, 7,21, 0, 1, 0.00,60.00,SummerDesignDay
769,22.785430286378266
2050,3380.9072116405807
2053,0.3935154918084161
2054,0.10212601521181046
2055,0.291389476596606
2056,12.948268531892769
2057,15.0
2063,15.0
2285,6.88344961403727
2286,8.989798326973908
2,1, 7,21, 0, 2, 0.00,60.00,SummerDesignDay
769,22.69344091161155
2050,3315.494860390243
2053,0.3935154918084161
2054,0.10320276813338539
2055,0.2903127236750311
2056,12.98794165948278
2057,15.0
2063,15.0
2285,7.119586882741275
2286,9.186263089036315
2,1, 7,21, 0, 3, 0.00,60.00,SummerDesignDay
769,22.617773911688503
2050,3261.8968289727656
2053,0.3935154918084161
2054,0.10375293702667121
2055,0.2897625547817453
2056,13.0204499906763
2057,15.0
2063,15.0
2285,7.284739011941207
2286,9.318907395831524
2,1, 7,21, 0, 4, 0.00,60.00,SummerDesignDay
769,22.55066411797135
2050,3214.403998934331
2053,0.3935154918084161
2054,0.10419111338444334
2055,0.2893243784239731
2056,13.049255895823281
2057,15.0
2063,15.0
2285,7.4259628378378379
2286,9.431325767486376
2,1, 7,21, 0, 5, 0.00,60.00,SummerDesignDay
769,22.493891125416103
2050,3173.945025549174
2053,0.3935154918084161
2054,0.10454545795746599
2055,0.28897003385095046
2056,13.073795911481995
2057,15.0
2063,15.0
2285,7.544027675604871
2286,9.524850973743695
2,1, 7,21, 0, 6, 0.00,60.00,SummerDesignDay
769,22.46404873664459
2050,3152.6464542040905
2053,0.3935154918084161
2054,0.10388674542322404
2055,0.28962874638519239
2056,13.08671450475688
2057,15.0
2063,15.0
2285,7.545573915632698
2286,9.513478822680693
2,1, 7,21, 0, 7, 0.00,60.00,SummerDesignDay
769,22.8361954282067
2050,3409.462366129506
2053,0.3935154918084161
2054,0.10902423202395464
2055,0.28449125978446179
2056,12.9309505613871
2057,15.0
2063,15.0
2285,7.335703317964299
2286,9.459369730360186
2,1, 7,21, 0, 8, 0.00,60.00,SummerDesignDay
769,23.08172155726099
2050,3585.9744776708168
2053,0.3935154918084161
2054,0.10760529874109397
2055,0.2859101930673225
2056,12.823899503330609
2057,15.0
2063,15.0
2285,6.840959799294428
2286,9.071675594277139
2,1, 7,21, 0, 9, 0.00,60.00,SummerDesignDay
769,23.476206383325708
2050,3861.31491147534
2053,0.3935154918084161
2054,0.11367793370354545
2055,0.279837558104871
2056,12.656926013752243
2057,15.0
2063,15.0
2285,6.699999999999995
2286,9.097686671504118
2,1, 7,21, 0,10, 0.00,60.00,SummerDesignDay
769,23.959081684981823
2050,4206.202214928787
2053,0.3935154918084161
2054,0.12359286726828546
2055,0.26992262454013096
2056,12.447797686988258
2057,15.0
2063,15.0
2285,6.699999999999993
2286,9.306811725791452
2,1, 7,21, 0,11, 0.00,60.00,SummerDesignDay
769,23.99995722898807
2050,4237.880512716348
2053,0.3935154918084161
2054,0.12450351464535757
2055,0.2690119771630589
2056,12.42859007859227
2057,15.0
2063,15.0
2285,6.699999999999993
2286,9.326019033729859
2,1, 7,21, 0,12, 0.00,60.00,SummerDesignDay
769,24.000009626949596
2050,4237.917568478812
2053,0.3935154918084161
2054,0.12450458029047304
2055,0.26901091151794345
2056,12.428567601922428
2057,15.0
2063,15.0
2285,6.699999999999993
2286,9.326041510238773
2,1, 7,21, 0,13, 0.00,60.00,SummerDesignDay
769,24.00000766027789
2050,4237.9170207427719
2053,0.3935154918084161
2054,0.12450456453332309
2055,0.2690109272750933
2056,12.428567934271089
2057,15.0
2063,15.0
2285,6.699999999999993
2286,9.326041177890117
2,1, 7,21, 0,14, 0.00,60.00,SummerDesignDay
769,24.000010731292165
2050,4237.918744002558
2053,0.3935154918084161
2054,0.12450461410768149
2055,0.269010877700735
2056,12.428566888652343
2057,15.0
2063,15.0
2285,6.699999999999993
2286,9.326042223508857
2,1, 7,21, 0,15, 0.00,60.00,SummerDesignDay
769,23.999984042714055
2050,4237.9004158786469
2053,0.3935154918084161
2054,0.12450408684824574
2055,0.2690114049601708
2056,12.428578009569837
2057,15.0
2063,15.0
2285,6.699999999999993
2286,9.326031102591367
2,1, 7,21, 0,16, 0.00,60.00,SummerDesignDay
769,23.99994030745122
2050,4237.8696581443859
2053,0.3935154918084161
2054,0.12450320256687167
2055,0.26901228924154477
2056,12.428596661009359
2057,15.0
2063,15.0
2285,6.699999999999993
2286,9.326012451393236
2,1, 7,21, 0,17, 0.00,60.00,SummerDesignDay
769,23.999897888035695
2050,4237.839413385517
2053,0.3935154918084161
2054,0.12450233258942138
2055,0.26901315921899518
2056,12.428615010552772
2057,15.0
2063,15.0
2285,6.699999999999993
2286,9.325994101892423
2,1, 7,21, 0,18, 0.00,60.00,SummerDesignDay
769,23.99837141661367
2050,4237.006538730182
2053,0.3935154918084161
2054,0.12447839137066466
2055,0.2690371004377518
2056,12.429119985222501
2057,15.0
2063,15.0
2285,6.699999999999993
2286,9.325489135455735
2,1, 7,21, 0,19, 0.00,60.00,SummerDesignDay
769,23.871208072352464
2050,4149.135648040446
2053,0.3935154918084161
2054,0.12195239418069241
2055,0.271563097627724
2056,12.482398966863427
2057,15.0
2063,15.0
2285,6.699999999999993
2286,9.272210987293331
2,1, 7,21, 0,20, 0.00,60.00,SummerDesignDay
769,23.704178621695168
2050,4030.6952437259089
2053,0.3935154918084161
2054,0.1185475153159667
2055,0.27496797649244988
2056,12.554215546837705
2057,15.0
2063,15.0
2285,6.699999999999993
2286,9.20039553106478
2,1, 7,21, 0,21, 0.00,60.00,SummerDesignDay
769,23.56607579061663
2050,3932.617125154874
2053,0.3935154918084161
2054,0.11572789914098274
2055,0.27778759266743366
2056,12.613687615844372
2057,15.0
2063,15.0
2285,6.699999999999993
2286,9.14092439272454
2,1, 7,21, 0,22, 0.00,60.00,SummerDesignDay
769,23.45309508125099
2050,3852.6490821966606
2053,0.3935154918084161
2054,0.11342885067387201
2055,0.28008664113454448
2056,12.66217973700219
2057,15.0
2063,15.0
2285,6.699999999999993
2286,9.092433030442136
2,1, 7,21, 0,23, 0.00,60.00,SummerDesignDay
769,23.100612172000237
2050,3607.0406185636404
2053,0.3935154918084161
2054,0.10636728639298361
2055,0.2871482054154328
2056,12.811124065790337
2057,15.0
2063,15.0
2285,6.699999999999993
2286,8.943491032601024
2,1, 7,21, 0,24, 0.00,60.00,SummerDesignDay
769,22.92317107285286
2050,3478.443901392375
2053,0.3935154918084161
2054,0.10270291968378626
2055,0.2908125721246302
2056,12.88911339503716
2057,15.0
2063,15.0
2285,6.7027041521533159
2286,8.868207076070279
1,RUNPERIOD 1,  41.98, -87.92,  -6.00, 201.00
2,1, 6, 1, 0, 1, 0.00,60.00,Monday
769,21.103881353798799
2050,4983.197959280502
2053,0.3935154918084161
2054,0.3899764575952197
2055,0.0035390342131964905
2056,11.976778409489724
2057,15.0
2063,14.888161657520194
2285,11.887288183557022
2286,14.9651034730421
2,1, 6, 1, 0, 2, 0.00,60.00,Monday
769,21.196787783507835
2050,0.0
2053,0.0
2054,0.0
2055,0.0
2056,16.995893619999977
2057,16.995893619999977
2063,14.888161657520194
2285,10.984330608200219
2286,10.984330608200219
2,1, 6, 1, 0, 3, 0.00,60.00,Monday
769,21.381293614826178
2050,0.0
2053,0.0
2054,0.0
2055,0.0
2056,15.583619920000018
2057,15.583619920000018
2063,14.888161657520194
2285,10.984330608200219
2286,10.984330608200219
2,1, 6, 1, 0, 4, 0.00,60.00,Monday
769,21.527421193776
2050,0.0
2053,0.0
2054,0.0
2055,0.0
2056,15.937444059999987
2057,15.937444059999987
2063,14.888161657520194
2285,10.984330608200219
2286,10.984330608200219
2,1, 6, 1, 0, 5, 0.00,60.00,Monday
769,21.55903613991658
2050,2736.372146098391
2053,0.3935154918084161
2054,0.16822196172078775
2055,0.22529353008762879
2056,13.339223850000018
2057,15.0
2063,14.888161657520194
2285,10.98604766318832
2286,12.70144717781842
2,1, 6, 1, 0, 6, 0.00,60.00,Monday
769,21.48866856261136
2050,0.0
2053,0.0
2054,0.0
2055,0.0
2056,15.366827400000009
2057,15.366827400000009
2063,14.888161657520194
2285,11.107506852937105
2286,11.107506852937105
2,1, 6, 1, 0, 7, 0.00,60.00,Monday
769,21.702546739525155
2050,3315.1939841631594
2053,0.3935154918084161
2054,0.2769978878297603
2055,0.1165176039786562
2056,12.988124119999988
2057,15.0
2063,14.893753574644185
2285,12.060022522522522
2286,14.126516271059016
2,1, 6, 1, 0, 8, 0.00,60.00,Monday
769,21.276420305215085
2050,0.0
2053,0.0
2054,0.0
2055,0.0
2056,15.804938890000012
2057,15.804938890000012
2063,14.934373459797027
2285,12.197596943027183
2286,12.197596943027183
2,1, 6, 1, 0, 9, 0.00,60.00,Monday
769,22.117571250686639
2050,1724.4946654558196
2053,0.3935154918084161
2054,0.112794582977406
2055,0.2807209088310104
2056,13.95317467999999
2057,15.0
2063,15.0
2285,11.127861802950529
2286,12.229320100765565
2,1, 6, 1, 0,10, 0.00,60.00,Monday
769,22.848007164841
2050,2160.8426347799074
2053,0.3935154918084161
2054,0.11444490818006908
2055,0.27907058362834738
2056,13.68839658000001
2057,15.0
2063,15.0
2285,10.296972496473389
2286,11.663204747791326
2,1, 6, 1, 0,11, 0.00,60.00,Monday
769,23.385023924014914
2050,4333.926670385635
2053,0.3935154918084161
2054,0.2014506574916569
2055,0.1920648343167596
2056,12.370356239999988
2057,15.0
2063,15.0
2285,9.75183933933934
2286,12.436091300261888
2,1, 6, 1, 0,12, 0.00,60.00,Monday
769,23.726425264302799
2050,2196.5187270241765
2053,0.3935154918084161
2054,0.09434413943978967
2055,0.2991713523686268
2056,13.66674992000002
2057,15.0
2063,15.0
2285,9.206794294294295
2286,10.594672866973962
2,1, 6, 1, 0,13, 0.00,60.00,Monday
769,23.66641231781876
2050,0.0
2053,0.0
2054,0.0
2055,0.0
2056,15.458746990000007
2057,15.458746990000007
2063,15.0
2285,8.935016455069903
2286,8.935016455069903
2,1, 6, 1, 0,14, 0.00,60.00,Monday
769,23.930493249179837
2050,4321.149765788492
2053,0.3935154918084161
2054,0.15944299019515827
2055,0.23407250161325814
2056,12.378102900000009
2057,15.0
2063,15.0
2285,8.39385688085776
2286,11.070362303130742
2,1, 6, 1, 0,15, 0.00,60.00,Monday
769,23.80456686050413
2050,0.0
2053,0.0
2054,0.0
2055,0.0
2056,16.869172440000026
2057,16.869172440000026
2063,15.0
2285,8.384684684684672
2286,8.384684684684672
2,1, 6, 1, 0,16, 0.00,60.00,Monday
769,23.37427684861113
2050,7277.983514348497
2053,0.3935154918084161
2054,0.24517454789682434
2055,0.1483409439115921
2056,10.586282989999983
2057,15.0
2063,15.0
2285,7.824273749772858
2286,12.292571060774757
2,1, 6, 1, 0,17, 0.00,60.00,Monday
769,23.008121195442504
2050,0.0
2053,0.0
2054,0.0
2055,0.0
2056,15.403518380000012
2057,15.403518380000012
2063,15.0
2285,7.547629067682522
2286,7.547629067682522
2,1, 6, 1, 0,18, 0.00,60.00,Monday
769,22.38948456146449
2050,5612.423221864953
2053,0.3935154918084161
2054,0.2047352000966128
2055,0.1887802917118036
2056,11.595374490000007
2057,15.0
2063,14.894466207771295
2285,8.34646000796179
2286,11.805681595945764
2,1, 6, 1, 0,19, 0.00,60.00,Monday
769,21.859122404497627
2050,0.0
2053,0.0
2054,0.0
2055,0.0
2056,16.41606199
2057,16.41606199
2063,14.88692807975496
2285,8.627145707092265
2286,8.627145707092265
2,1, 6, 1, 0,20, 0.00,60.00,Monday
769,21.60144999244718
2050,4133.235039799738
2053,0.3935154918084161
2054,0.22881829247990524
2055,0.16469719932851119
2056,12.492039989999995
2057,15.0
2063,14.88692807975496
2285,10.532841892025573
2286,13.095412007361113
2,1, 6, 1, 0,21, 0.00,60.00,Monday
769,21.29224023621236
2050,0.0
2053,0.0
2054,0.0
2055,0.0
2056,16.333442630000016
2057,16.333442630000016
2063,14.88692807975496
2285,11.390866419792122
2286,11.390866419792122
2,1, 6, 1, 0,22, 0.00,60.00,Monday
769,21.678840478960607
2050,4547.110685405
2053,0.3935154918084161
2054,0.3935154918084161
2055,0.0
2056,12.241108733573391
2057,15.0
2063,14.88692807975496
2285,12.18651444032988
2286,15.0
2,1, 6, 1, 0,23, 0.00,60.00,Monday
769,21.433469804879079
2050,4524.899694388959
2053,0.3935154918084161
2054,0.3935154918084161
2055,0.0
2056,12.254572950232579
2057,15.0
2063,14.88692807975496
2285,12.20000000000001
2286,15.0
2,1, 6, 1, 0,24, 0.00,60.00,Monday
769,21.27703043199007
2050,4524.914240560459
2053,0.3935154918084161
2054,0.3935154918084161
2055,0.0
2056,12.254564124522519
2057,15.0
2063,14.88692807975496
2285,12.20000000000001
2286,15.000000000000002
2,2, 6, 2, 0, 1, 0.00,60.00,Tuesday
769,21.02773383223411
2050,2139.8875039016809
2053,0.3935154918084161
2054,0.19022504951157202
2055,0.20329044229684443
2056,13.70111144437185
2057,15.0
2063,14.88692807975496
2285,12.200000000000009
2286,13.553517586270056
2,2, 6, 2, 0, 2, 0.00,60.00,Tuesday
769,20.92660606236312
2050,2067.4727779157717
2053,0.3935154918084161
2054,0.18404989229040279
2055,0.2094655995180137
2056,13.745050530163042
2057,15.0
2063,14.88692807975496
2285,12.20000000000001
2286,13.509579188470731
2,2, 6, 2, 0, 3, 0.00,60.00,Tuesday
769,20.809726116641344
2050,1985.4350876652548
2053,0.3935154918084161
2054,0.17705393261401768
2055,0.21646155919439873
2056,13.794830003235742
2057,15.0
2063,14.88692807975496
2285,12.20000000000001
2286,13.45980049486999
2,2, 6, 2, 0, 4, 0.00,60.00,Tuesday
769,20.677273211670046
2050,1891.613719857622
2053,0.3935154918084161
2054,0.16905285922031303
2055,0.22446263258810346
2056,13.851761323113845
2057,15.0
2063,14.88692807975496
2285,12.20000000000001
2286,13.402870066541944
2,2, 6, 2, 0, 5, 0.00,60.00,Tuesday
769,20.583154541419
2050,1824.265139000087
2053,0.3935154918084161
2054,0.16330922380593353
2055,0.23020626800248293
2056,13.89262993268515
2057,15.0
2063,14.88692807975496
2285,12.20000000000001
2286,13.362002096932015
2,2, 6, 2, 0, 6, 0.00,60.00,Tuesday
769,20.696938132307268
2050,1901.173703931306
2053,0.3935154918084161
2054,0.16986811094927577
2055,0.22364738085914075
2056,13.845960431793536
2057,15.0
2063,14.92084965582847
2285,12.20000000000001
2286,13.408670866989734
2,2, 6, 2, 0, 7, 0.00,60.00,Tuesday
769,21.11875931185558
2050,2196.4772497050964
2053,0.3935154918084161
2054,0.17774992253396702
2055,0.21576556927444938
2056,13.666775921528874
2057,15.0
2063,15.0
2285,11.90127544043137
2286,13.289128011867224
2,2, 6, 2, 0, 8, 0.00,60.00,Tuesday
769,20.809731829625794
2050,1988.9992578715094
2053,0.3935154918084161
2054,0.11294893408326133
2055,0.2805665577251551
2056,13.792668028931951
2057,15.0
2063,15.0
2285,10.574085122177405
2286,11.836047557537425
2,2, 6, 2, 0, 9, 0.00,60.00,Tuesday
769,21.715529086702078
2050,2608.7974327138856
2053,0.3935154918084161
2054,0.11930334266326805
2055,0.27421214914514838
2056,13.416622437885394
2057,15.0
2063,15.0
2285,9.605708219117718
2286,11.243710357628834
2,2, 6, 2, 0,10, 0.00,60.00,Tuesday
769,22.39345828648378
2050,3096.0306635394456
2053,0.3935154918084161
2054,0.12489668502849402
2055,0.26861880677992236
2056,13.121056561118018
2057,15.0
2063,15.0
2285,8.90954505813645
2286,10.843108446406243
2,2, 6, 2, 0,11, 0.00,60.00,Tuesday
769,22.950954442092458
2050,3490.4597249702899
2053,0.3935154918084161
2054,0.12655014473900628
2055,0.26696534706941019
2056,12.881827143757313
2057,15.0
2063,15.0
2285,8.242602591693095
2286,10.41539165289777
2,2, 6, 2, 0,12, 0.00,60.00,Tuesday
769,23.3382751353053
2050,3766.9352029757808
2053,0.3935154918084161
2054,0.12862783466334613
2055,0.26488765714507037
2056,12.71415786676684
2057,15.0
2063,15.0
2285,7.839767802678191
2286,10.180223516764317
2,2, 6, 2, 0,13, 0.00,60.00,Tuesday
769,23.351360138525015
2050,3781.38598781469
2053,0.3935154918084161
2054,0.12654535940510698
2055,0.2669701324033095
2056,12.705394371991846
2057,15.0
2063,15.0
2285,7.693420407329012
2286,10.042639479020443
2,2, 6, 2, 0,14, 0.00,60.00,Tuesday
769,23.344704912818789
2050,3776.1934210768397
2053,0.3935154918084161
2054,0.12379501137376116
2055,0.26972048043465526
2056,12.7085434650465
2057,15.0
2063,15.0
2285,7.542390403481804
2286,9.888460431439223
2,2, 6, 2, 0,15, 0.00,60.00,Tuesday
769,22.99956622446802
2050,3534.2947668986278
2053,0.3935154918084161
2054,0.1160535746943394
2055,0.277461917114077
2056,12.855241563356949
2057,15.0
2063,15.0
2285,7.542342342342349
2286,9.741716567840813
2,2, 6, 2, 0,16, 0.00,60.00,Tuesday
769,22.81559127734031
2050,3402.702067382616
2053,0.3935154918084161
2054,0.11184241689611205
2055,0.2816730749123044
2056,12.935050021671746
2057,15.0
2063,15.0
2285,7.542342342342349
2286,9.661909358581453
2,2, 6, 2, 0,17, 0.00,60.00,Tuesday
769,22.645223281929863
2050,3282.3863238895617
2053,0.3935154918084161
2054,0.11015386240541422
2055,0.28336162940300227
2056,13.008022707328689
2057,15.0
2063,15.0
2285,7.688561574652969
2286,9.735157047367834
2,2, 6, 2, 0,18, 0.00,60.00,Tuesday
769,22.027587596264959
2050,2852.7241492081877
2053,0.3935154918084161
2054,0.09982245574873286
2055,0.2936930360596835
2056,13.26864342802698
2057,15.0
2063,14.968808627265846
2285,7.961440938759037
2286,9.74741977044317
2,2, 6, 2, 0,19, 0.00,60.00,Tuesday
769,21.553388333108069
2050,2514.2858817250078
2053,0.3935154918084161
2054,0.09763968378436266
2055,0.29587580802405369
2056,13.473955612781788
2057,15.0
2063,14.964689011999069
2285,8.623484521576808
2286,10.204154382776079
2,2, 6, 2, 0,20, 0.00,60.00,Tuesday
769,21.269694879152195
2050,2311.362956463755
2053,0.3935154918084161
2054,0.10929047723335318
2055,0.2842250145750633
2056,13.59706966441349
2057,15.0
2063,14.964689011999069
2285,9.73780831049021
2286,11.195366047597373
2,2, 6, 2, 0,21, 0.00,60.00,Tuesday
769,21.051340775794118
2050,2156.8209255503059
2053,0.3935154918084161
2054,0.1299907483479718
2055,0.2635247434604447
2056,13.690836956796029
2057,15.0
2063,14.964689011999069
2285,10.853070067888167
2286,12.216861980796694
2,2, 6, 2, 0,22, 0.00,60.00,Tuesday
769,21.579313705188917
2050,2518.7471525946036
2053,0.3935154918084161
2054,0.16138625715973474
2055,0.2321292346486818
2056,13.471249974336278
2057,15.0
2063,14.964689011999069
2285,11.138962390459716
2286,12.72233784768026
2,2, 6, 2, 0,23, 0.00,60.00,Tuesday
769,21.52596288359386
2050,2493.151447695333
2053,0.3935154918084161
2054,0.17230465078573307
2055,0.22121084102268324
2056,13.486777217494016
2057,15.0
2063,14.964689011999069
2285,11.39838745939013
2286,12.966235916579944
2,2, 6, 2, 0,24, 0.00,60.00,Tuesday
769,21.328055165045194
2050,2351.2557828488086
2053,0.3935154918084161
2054,0.18272555467147198
2055,0.2107899371369445
2056,13.57286557668627
2057,15.0
2063,14.964689011999069
2285,11.805856795763619
2286,13.28761824162645
End of Data
 Number of Records Written=         960
