Program Version,EnergyPlus, Version 9.4.0-998c4b761e, YMD=2021.07.12 20:28
1,5,Environment Title[],Latitude[deg],Longitude[deg],Time Zone[],Elevation[m]
2,8,Day of Simulation[],Month[],Day of Month[],DST Indicator[1=yes 0=no],Hour[],StartMinute[],EndMinute[],DayType
3,5,Cumulative Day of Simulation[],Month[],Day of Month[],DST Indicator[1=yes 0=no],DayType  ! When Daily Meters Requested
4,2,Cumulative Days of Simulation[],Month[]  ! When Monthly Meters Requested
5,1,Cumulative Days of Simulation[] ! When Run Period Meters Requested
6,1,Calendar Year of Simulation[] ! When Annual Meters Requested
59,1,Electricity:Facility [J] !Hourly
1716,1,ElectricityNet:Facility [J] !Hourly
95,1,InteriorLights:Electricity [J] !Hourly
512,1,InteriorEquipment:Electricity [J] !Hourly
End of Data Dictionary
1,ATLANTA-HARTSFIELD.JACKSON.INTL.AP_GA_USA ANN HTG 99.6% CONDNS DB,  33.63, -84.43,  -5.00, 308.00
2,1, 1,21, 0, 1, 0.00,60.00,WinterDesignDay
59,126003540.2713412
95,0.0
512,0.0
1716,126003540.2713412
2,1, 1,21, 0, 2, 0.00,60.00,WinterDesignDay
59,126003540.2713412
95,0.0
512,0.0
1716,126003540.2713412
2,1, 1,21, 0, 3, 0.00,60.00,WinterDesignDay
59,126003540.2713412
95,0.0
512,0.0
1716,126003540.2713412
2,1, 1,21, 0, 4, 0.00,60.00,WinterDesignDay
59,126003540.2713412
95,0.0
512,0.0
1716,126003540.2713412
2,1, 1,21, 0, 5, 0.00,60.00,WinterDesignDay
59,126003540.2713412
95,0.0
512,0.0
1716,126003540.2713412
2,1, 1,21, 0, 6, 0.00,60.00,WinterDesignDay
59,126003540.2713412
95,0.0
512,0.0
1716,126003540.2713412
2,1, 1,21, 0, 7, 0.00,60.00,WinterDesignDay
59,136363800.2713412
95,0.0
512,0.0
1716,136363800.2713412
2,1, 1,21, 0, 8, 0.00,60.00,WinterDesignDay
59,131650950.2713412
95,0.0
512,0.0
1716,131650950.2713412
2,1, 1,21, 0, 9, 0.00,60.00,WinterDesignDay
59,117512400.2713412
95,0.0
512,0.0
1716,117512400.27134122
2,1, 1,21, 0,10, 0.00,60.00,WinterDesignDay
59,117512400.2713412
95,0.0
512,0.0
1716,117512400.27134122
2,1, 1,21, 0,11, 0.00,60.00,WinterDesignDay
59,117512400.2713412
95,0.0
512,0.0
1716,117512400.27134122
2,1, 1,21, 0,12, 0.00,60.00,WinterDesignDay
59,117512400.2713412
95,0.0
512,0.0
1716,117512400.27134122
2,1, 1,21, 0,13, 0.00,60.00,WinterDesignDay
59,117512400.2713412
95,0.0
512,0.0
1716,117512400.27134122
2,1, 1,21, 0,14, 0.00,60.00,WinterDesignDay
59,117512400.2713412
95,0.0
512,0.0
1716,117512400.27134122
2,1, 1,21, 0,15, 0.00,60.00,WinterDesignDay
59,117512400.2713412
95,0.0
512,0.0
1716,117512400.27134122
2,1, 1,21, 0,16, 0.00,60.00,WinterDesignDay
59,117512400.2713412
95,0.0
512,0.0
1716,117512400.27134122
2,1, 1,21, 0,17, 0.00,60.00,WinterDesignDay
59,117512400.2713412
95,0.0
512,0.0
1716,117512400.27134122
2,1, 1,21, 0,18, 0.00,60.00,WinterDesignDay
59,120025920.2713412
95,0.0
512,0.0
1716,120025920.27134122
2,1, 1,21, 0,19, 0.00,60.00,WinterDesignDay
59,136363800.2713412
95,0.0
512,0.0
1716,136363800.2713412
2,1, 1,21, 0,20, 0.00,60.00,WinterDesignDay
59,128548920.2713412
95,0.0
512,0.0
1716,128548920.2713412
2,1, 1,21, 0,21, 0.00,60.00,WinterDesignDay
59,128548920.2713412
95,0.0
512,0.0
1716,128548920.2713412
2,1, 1,21, 0,22, 0.00,60.00,WinterDesignDay
59,128548920.2713412
95,0.0
512,0.0
1716,128548920.2713412
2,1, 1,21, 0,23, 0.00,60.00,WinterDesignDay
59,128548920.2713412
95,0.0
512,0.0
1716,128548920.2713412
2,1, 1,21, 0,24, 0.00,60.00,WinterDesignDay
59,128548920.2713412
95,0.0
512,0.0
1716,128548920.2713412
1,ATLANTA-HARTSFIELD.JACKSON.INTL.AP_GA_USA ANN CLG .4% CONDNS DB=>MWB,  33.63, -84.43,  -5.00, 308.00
2,1, 7,21, 0, 1, 0.00,60.00,SummerDesignDay
59,528872627.4189922
95,152517470.7542746
512,224813060.55296675
1716,528872627.4189922
2,1, 7,21, 0, 2, 0.00,60.00,SummerDesignDay
59,529469326.94790938
95,152517470.7542746
512,224813060.55296675
1716,529469326.94790938
2,1, 7,21, 0, 3, 0.00,60.00,SummerDesignDay
59,529751326.94790938
95,152517470.7542746
512,224813060.55296675
1716,529751326.94790938
2,1, 7,21, 0, 4, 0.00,60.00,SummerDesignDay
59,529865326.94790938
95,152517470.7542746
512,224813060.55296675
1716,529865326.94790938
2,1, 7,21, 0, 5, 0.00,60.00,SummerDesignDay
59,529991326.94790938
95,152517470.7542746
512,224813060.55296675
1716,529991326.94790938
2,1, 7,21, 0, 6, 0.00,60.00,SummerDesignDay
59,527882922.70631018
95,152399851.51267544
512,224813060.55296675
1716,527882922.70631018
2,1, 7,21, 0, 7, 0.00,60.00,SummerDesignDay
59,493239502.9781371
95,129723979.24717574
512,224813060.55296675
1716,493239502.9781371
2,1, 7,21, 0, 8, 0.00,60.00,SummerDesignDay
59,488138434.2144418
95,120394417.54972403
512,224813060.55296675
1716,488138434.2144417
2,1, 7,21, 0, 9, 0.00,60.00,SummerDesignDay
59,471243929.86327967
95,119991185.40467149
512,224813060.55296675
1716,471243929.86327967
2,1, 7,21, 0,10, 0.00,60.00,SummerDesignDay
59,471243929.86327967
95,119991185.40467149
512,224813060.55296675
1716,471243929.86327967
2,1, 7,21, 0,11, 0.00,60.00,SummerDesignDay
59,471267929.86327967
95,119991185.40467149
512,224813060.55296675
1716,471267929.86327967
2,1, 7,21, 0,12, 0.00,60.00,SummerDesignDay
59,471243929.86327967
95,119991185.40467149
512,224813060.55296675
1716,471243929.86327967
2,1, 7,21, 0,13, 0.00,60.00,SummerDesignDay
59,471243929.86327967
95,119991185.40467149
512,224813060.55296675
1716,471243929.86327967
2,1, 7,21, 0,14, 0.00,60.00,SummerDesignDay
59,471333929.86327967
95,119991185.40467149
512,224813060.55296675
1716,471333929.86327967
2,1, 7,21, 0,15, 0.00,60.00,SummerDesignDay
59,471357929.86327967
95,119991185.40467149
512,224813060.55296675
1716,471357929.86327967
2,1, 7,21, 0,16, 0.00,60.00,SummerDesignDay
59,471279929.86327967
95,119991185.40467149
512,224813060.55296675
1716,471279929.86327967
2,1, 7,21, 0,17, 0.00,60.00,SummerDesignDay
59,471339929.86327967
95,119991185.40467149
512,224813060.55296675
1716,471339929.86327967
2,1, 7,21, 0,18, 0.00,60.00,SummerDesignDay
59,471338185.631682
95,120025441.17307365
512,224813060.55296675
1716,471338185.631682
2,1, 7,21, 0,19, 0.00,60.00,SummerDesignDay
59,473786042.0194439
95,122515297.56083551
512,224813060.55296675
1716,473786042.01944389
2,1, 7,21, 0,20, 0.00,60.00,SummerDesignDay
59,501445198.2690928
95,146697555.81048496
512,224813060.55296675
1716,501445198.2690928
2,1, 7,21, 0,21, 0.00,60.00,SummerDesignDay
59,514806735.21288248
95,152517470.7542746
512,224813060.55296675
1716,514806735.21288248
2,1, 7,21, 0,22, 0.00,60.00,SummerDesignDay
59,514806735.21288248
95,152517470.7542746
512,224813060.55296675
1716,514806735.21288248
2,1, 7,21, 0,23, 0.00,60.00,SummerDesignDay
59,514806735.21288248
95,152517470.7542746
512,224813060.55296675
1716,514806735.21288248
2,1, 7,21, 0,24, 0.00,60.00,SummerDesignDay
59,518151129.55988809
95,152517470.7542746
512,224813060.55296675
1716,518151129.55988809
1,RUNPERIOD 1,  33.63, -84.43,  -5.00, 308.00
2,1, 7, 1, 0, 1, 0.00,60.00,Monday
59,69964992.15032232
95,7625873.53771374
512,44533202.00181081
1716,69964992.15032232
2,1, 7, 1, 0, 2, 0.00,60.00,Monday
59,76174843.2241876
95,7625873.53771374
512,44533202.00181081
1716,76174843.22418759
2,1, 7, 1, 0, 3, 0.00,60.00,Monday
59,84003157.06651911
95,7625873.53771374
512,44533202.00181081
1716,84003157.06651911
2,1, 7, 1, 0, 4, 0.00,60.00,Monday
59,84996132.2454967
95,7625873.53771374
512,44533202.00181081
1716,84996132.24549669
2,1, 7, 1, 0, 5, 0.00,60.00,Monday
59,84454644.6560079
95,7625873.53771374
512,44533202.00181081
1716,84454644.6560079
2,1, 7, 1, 0, 6, 0.00,60.00,Monday
59,94587666.89424919
95,14835019.70208967
512,44533202.00181081
1716,94587666.89424919
2,1, 7, 1, 0, 7, 0.00,60.00,Monday
59,100024427.88948286
95,10806640.641844433
512,55180531.87831209
1716,100024427.88948284
2,1, 7, 1, 0, 8, 0.00,60.00,Monday
59,268853275.4872775
95,31270023.132256438
512,95796493.41677362
1716,268853275.4872775
2,1, 7, 1, 0, 9, 0.00,60.00,Monday
59,439258145.60916659
95,93124323.85391505
512,204227663.7591696
1716,439258145.60916659
2,1, 7, 1, 0,10, 0.00,60.00,Monday
59,393619814.37586817
95,93124323.85391505
512,174055806.61631225
1716,393619814.37586817
2,1, 7, 1, 0,11, 0.00,60.00,Monday
59,386657078.1121327
95,93124323.85391505
512,167093070.3525762
1716,386657078.1121327
2,1, 7, 1, 0,12, 0.00,60.00,Monday
59,393619814.37586817
95,93124323.85391505
512,174055806.61631225
1716,393619814.37586817
2,1, 7, 1, 0,13, 0.00,60.00,Monday
59,397543522.0656314
95,93124323.85391505
512,177667514.30607493
1716,397543522.0656314
2,1, 7, 1, 0,14, 0.00,60.00,Monday
59,399434094.5956491
95,93124323.85391505
512,179858086.83609239
1716,399434094.5956491
2,1, 7, 1, 0,15, 0.00,60.00,Monday
59,386657078.1121327
95,93124323.85391505
512,167093070.3525762
1716,386657078.1121327
2,1, 7, 1, 0,16, 0.00,60.00,Monday
59,386666745.62610957
95,93133991.36789204
512,167093070.3525762
1716,386666745.62610957
2,1, 7, 1, 0,17, 0.00,60.00,Monday
59,398281428.65129628
95,94304569.99747429
512,177537174.74818046
1716,398281428.65129628
2,1, 7, 1, 0,18, 0.00,60.00,Monday
59,320261319.99787726
95,52897696.51907077
512,140923939.57316477
1716,320261319.99787726
2,1, 7, 1, 0,19, 0.00,60.00,Monday
59,240530279.12963603
95,33000511.074774714
512,69106004.40578471
1716,240530279.12963606
2,1, 7, 1, 0,20, 0.00,60.00,Monday
59,245270935.4870771
95,38899677.792273219
512,59822356.054136309
1716,245270935.4870771
2,1, 7, 1, 0,21, 0.00,60.00,Monday
59,241500475.59053604
95,26303943.895732464
512,59822356.054136309
1716,241500475.59053604
2,1, 7, 1, 0,22, 0.00,60.00,Monday
59,113140736.11404604
95,26303943.895732464
512,55180531.87831209
1716,113140736.11404604
2,1, 7, 1, 0,23, 0.00,60.00,Monday
59,110898279.19550471
95,13151971.947866232
512,55180531.87831209
1716,110898279.19550468
2,1, 7, 1, 0,24, 0.00,60.00,Monday
59,103842293.22157146
95,6575985.973933116
512,55180531.87831209
1716,103842293.22157146
2,2, 7, 2, 0, 1, 0.00,60.00,Tuesday
59,69964992.15032232
95,7625873.53771374
512,44533202.00181081
1716,69964992.15032232
2,2, 7, 2, 0, 2, 0.00,60.00,Tuesday
59,74622380.4557213
95,7625873.53771374
512,44533202.00181081
1716,74622380.45572129
2,2, 7, 2, 0, 3, 0.00,60.00,Tuesday
59,88077057.78242931
95,7625873.53771374
512,44533202.00181081
1716,88077057.78242931
2,2, 7, 2, 0, 4, 0.00,60.00,Tuesday
59,83937157.06651919
95,7625873.53771374
512,44533202.00181081
1716,83937157.06651919
2,2, 7, 2, 0, 5, 0.00,60.00,Tuesday
59,75175868.04521014
95,7625873.53771374
512,44533202.00181081
1716,75175868.04521014
2,2, 7, 2, 0, 6, 0.00,60.00,Tuesday
59,85599617.65678913
95,15251747.07542748
512,44533202.00181081
1716,85599617.65678911
2,2, 7, 2, 0, 7, 0.00,60.00,Tuesday
59,98454648.30764248
95,12100348.64949286
512,55180531.87831209
1716,98454648.30764248
2,2, 7, 2, 0, 8, 0.00,60.00,Tuesday
59,268633836.8183973
95,31140584.46337594
512,95796493.41677362
1716,268633836.8183973
2,2, 7, 2, 0, 9, 0.00,60.00,Tuesday
59,440729643.25375196
95,93124323.85391505
512,204227663.7591696
1716,440729643.25375196
2,2, 7, 2, 0,10, 0.00,60.00,Tuesday
59,410365786.1108949
95,93124323.85391505
512,174055806.61631225
1716,410365786.1108949
2,2, 7, 2, 0,11, 0.00,60.00,Tuesday
59,403100350.3182412
95,93124323.85391505
512,167093070.3525762
1716,403100350.3182412
2,2, 7, 2, 0,12, 0.00,60.00,Tuesday
59,393619814.37586817
95,93124323.85391505
512,174055806.61631225
1716,393619814.37586817
2,2, 7, 2, 0,13, 0.00,60.00,Tuesday
59,397345522.0656314
95,93124323.85391505
512,177667514.30607493
1716,397345522.0656314
2,2, 7, 2, 0,14, 0.00,60.00,Tuesday
59,399428094.5956491
95,93124323.85391505
512,179858086.83609239
1716,399428094.5956491
2,2, 7, 2, 0,15, 0.00,60.00,Tuesday
59,386657078.1121327
95,93124323.85391505
512,167093070.3525762
1716,386657078.1121327
2,2, 7, 2, 0,16, 0.00,60.00,Tuesday
59,386657078.1121327
95,93124323.85391505
512,167093070.3525762
1716,386657078.1121327
2,2, 7, 2, 0,17, 0.00,60.00,Tuesday
59,397101182.50773677
95,93124323.85391505
512,177537174.74818046
1716,397101182.50773677
2,2, 7, 2, 0,18, 0.00,60.00,Tuesday
59,319232786.05594918
95,51749162.5771431
512,140923939.57316477
1716,319232786.05594918
2,2, 7, 2, 0,19, 0.00,60.00,Tuesday
59,228229640.28994764
95,31563153.862853268
512,69106004.40578471
1716,228229640.28994764
2,2, 7, 2, 0,20, 0.00,60.00,Tuesday
59,243156907.8493598
95,37421650.15455603
512,59822356.054136309
1716,243156907.84935979
2,2, 7, 2, 0,21, 0.00,60.00,Tuesday
59,240954475.59053604
95,26303943.895732464
512,59822356.054136309
1716,240954475.59053604
2,2, 7, 2, 0,22, 0.00,60.00,Tuesday
59,122451329.60911317
95,26303943.895732464
512,55180531.87831209
1716,122451329.60911317
2,2, 7, 2, 0,23, 0.00,60.00,Tuesday
59,113480565.61455487
95,13151971.947866232
512,55180531.87831209
1716,113480565.61455484
2,2, 7, 2, 0,24, 0.00,60.00,Tuesday
59,104002845.64950814
95,6575985.973933116
512,55180531.87831209
1716,104002845.64950814
End of Data
 Number of Records Written=         384
