Program Version,EnergyPlus, Version 9.4.0-998c4b761e, YMD=2021.07.01 15:49
1,5,Environment Title[],Latitude[deg],Longitude[deg],Time Zone[],Elevation[m]
2,8,Day of Simulation[],Month[],Day of Month[],DST Indicator[1=yes 0=no],Hour[],StartMinute[],EndMinute[],DayType
3,5,Cumulative Day of Simulation[],Month[],Day of Month[],DST Indicator[1=yes 0=no],DayType  ! When Daily Report Variables Requested
4,2,Cumulative Days of Simulation[],Month[]  ! When Monthly Report Variables Requested
5,1,Cumulative Days of Simulation[] ! When Run Period Report Variables Requested
6,1,Calendar Year of Simulation[] ! When Annual Report Variables Requested
769,1,PERIMETER_TOP_ZN_1,Zone Mean Air Temperature [C] !Hourly
2050,1,PERI1_TOP_LOTEMP,Zone Radiant HVAC Cooling Rate [W] !Hourly
End of Data Dictionary
1,ATLANTA-HARTSFIELD.JACKSON.INTL.AP_GA_USA ANN HTG 99.6% CONDNS DB,  41.98, -87.92,  -6.00, 201.00
2,1, 1,21, 0, 1, 0.00,60.00,WinterDesignDay
769,13.407002486817938
2050,0.0
2,1, 1,21, 0, 2, 0.00,60.00,WinterDesignDay
769,13.39567357350672
2050,0.0
2,1, 1,21, 0, 3, 0.00,60.00,WinterDesignDay
769,13.385288110877545
2050,0.0
2,1, 1,21, 0, 4, 0.00,60.00,WinterDesignDay
769,13.375912109137177
2050,0.0
2,1, 1,21, 0, 5, 0.00,60.00,WinterDesignDay
769,13.367303687839942
2050,0.0
2,1, 1,21, 0, 6, 0.00,60.00,WinterDesignDay
769,13.359413524363993
2050,0.0
2,1, 1,21, 0, 7, 0.00,60.00,WinterDesignDay
769,13.751508992866614
2050,0.0
2,1, 1,21, 0, 8, 0.00,60.00,WinterDesignDay
769,13.840722040162598
2050,0.0
2,1, 1,21, 0, 9, 0.00,60.00,WinterDesignDay
769,13.863585614453865
2050,0.0
2,1, 1,21, 0,10, 0.00,60.00,WinterDesignDay
769,13.880642626127744
2050,0.0
2,1, 1,21, 0,11, 0.00,60.00,WinterDesignDay
769,13.895176458987887
2050,0.0
2,1, 1,21, 0,12, 0.00,60.00,WinterDesignDay
769,13.908043727908597
2050,0.0
2,1, 1,21, 0,13, 0.00,60.00,WinterDesignDay
769,13.919573123712459
2050,0.0
2,1, 1,21, 0,14, 0.00,60.00,WinterDesignDay
769,13.929953965619303
2050,0.0
2,1, 1,21, 0,15, 0.00,60.00,WinterDesignDay
769,13.939335652059146
2050,0.0
2,1, 1,21, 0,16, 0.00,60.00,WinterDesignDay
769,13.947832907970837
2050,0.0
2,1, 1,21, 0,17, 0.00,60.00,WinterDesignDay
769,13.955584527666395
2050,0.0
2,1, 1,21, 0,18, 0.00,60.00,WinterDesignDay
769,13.96262378334549
2050,0.0
2,1, 1,21, 0,19, 0.00,60.00,WinterDesignDay
769,13.566642012161527
2050,0.0
2,1, 1,21, 0,20, 0.00,60.00,WinterDesignDay
769,13.47941796529331
2050,0.0
2,1, 1,21, 0,21, 0.00,60.00,WinterDesignDay
769,13.454997975272054
2050,0.0
2,1, 1,21, 0,22, 0.00,60.00,WinterDesignDay
769,13.437081552188172
2050,0.0
2,1, 1,21, 0,23, 0.00,60.00,WinterDesignDay
769,13.421868193089202
2050,0.0
2,1, 1,21, 0,24, 0.00,60.00,WinterDesignDay
769,13.408388227425523
2050,0.0
1,ATLANTA-HARTSFIELD.JACKSON.INTL.AP_GA_USA ANN CLG .4% CONDNS DB=>MWB,  41.98, -87.92,  -6.00, 201.00
2,1, 7,21, 0, 1, 0.00,60.00,SummerDesignDay
769,22.785430285863489
2050,3380.9072112471997
2,1, 7,21, 0, 2, 0.00,60.00,SummerDesignDay
769,22.69344091125051
2050,3315.4948603708414
2,1, 7,21, 0, 3, 0.00,60.00,SummerDesignDay
769,22.617773911564226
2050,3261.896828894164
2,1, 7,21, 0, 4, 0.00,60.00,SummerDesignDay
769,22.55066411746462
2050,3214.403998850151
2,1, 7,21, 0, 5, 0.00,60.00,SummerDesignDay
769,22.493891125218878
2050,3173.9450253124466
2,1, 7,21, 0, 6, 0.00,60.00,SummerDesignDay
769,22.464048738953488
2050,3152.6464550603557
2,1, 7,21, 0, 7, 0.00,60.00,SummerDesignDay
769,22.836195431110885
2050,3409.462368383372
2,1, 7,21, 0, 8, 0.00,60.00,SummerDesignDay
769,23.08172155658634
2050,3585.9744772231017
2,1, 7,21, 0, 9, 0.00,60.00,SummerDesignDay
769,23.476206380988104
2050,3861.3149097959119
2,1, 7,21, 0,10, 0.00,60.00,SummerDesignDay
769,23.959081686848216
2050,4206.2022168133939
2,1, 7,21, 0,11, 0.00,60.00,SummerDesignDay
769,23.999957228986579
2050,4237.880512715573
2,1, 7,21, 0,12, 0.00,60.00,SummerDesignDay
769,24.000009626952516
2050,4237.917568481357
2,1, 7,21, 0,13, 0.00,60.00,SummerDesignDay
769,24.000007660277075
2050,4237.917020741609
2,1, 7,21, 0,14, 0.00,60.00,SummerDesignDay
769,24.00001073129183
2050,4237.918744002344
2,1, 7,21, 0,15, 0.00,60.00,SummerDesignDay
769,23.99998404271277
2050,4237.900415877697
2,1, 7,21, 0,16, 0.00,60.00,SummerDesignDay
769,23.99994030745205
2050,4237.869658144792
2,1, 7,21, 0,17, 0.00,60.00,SummerDesignDay
769,23.999897888035986
2050,4237.8394133858869
2,1, 7,21, 0,18, 0.00,60.00,SummerDesignDay
769,23.998371417723303
2050,4237.006539270832
2,1, 7,21, 0,19, 0.00,60.00,SummerDesignDay
769,23.8712080761331
2050,4149.135650259839
2,1, 7,21, 0,20, 0.00,60.00,SummerDesignDay
769,23.70417861989428
2050,4030.6952424224216
2,1, 7,21, 0,21, 0.00,60.00,SummerDesignDay
769,23.566075785527138
2050,3932.6171219314658
2,1, 7,21, 0,22, 0.00,60.00,SummerDesignDay
769,23.45309507958378
2050,3852.6490806768676
2,1, 7,21, 0,23, 0.00,60.00,SummerDesignDay
769,23.100612167290757
2050,3607.040615512636
2,1, 7,21, 0,24, 0.00,60.00,SummerDesignDay
769,22.923171077256133
2050,3478.443904324806
1,RUNPERIOD 1,  41.98, -87.92,  -6.00, 201.00
2,1, 6, 1, 0, 1, 0.00,60.00,Monday
769,21.41572684178142
2050,1793.149935121266
2,1, 6, 1, 0, 2, 0.00,60.00,Monday
769,21.612024730638657
2050,476.3230844078605
2,1, 6, 1, 0, 3, 0.00,60.00,Monday
769,21.626114025890464
2050,2588.3861759133876
2,1, 6, 1, 0, 4, 0.00,60.00,Monday
769,21.584289574196914
2050,0.0
2,1, 6, 1, 0, 5, 0.00,60.00,Monday
769,21.622100422909669
2050,1751.1482535060025
2,1, 6, 1, 0, 6, 0.00,60.00,Monday
769,21.48400096714371
2050,4979.16478882881
2,1, 6, 1, 0, 7, 0.00,60.00,Monday
769,21.608048682579196
2050,0.0
2,1, 6, 1, 0, 8, 0.00,60.00,Monday
769,21.348123671206097
2050,0.0
2,1, 6, 1, 0, 9, 0.00,60.00,Monday
769,22.22855752310807
2050,0.0
2,1, 6, 1, 0,10, 0.00,60.00,Monday
769,23.056552954769903
2050,0.0
2,1, 6, 1, 0,11, 0.00,60.00,Monday
769,23.55300976579689
2050,6852.6529734461369
2,1, 6, 1, 0,12, 0.00,60.00,Monday
769,23.72144900170652
2050,3249.6445721272009
2,1, 6, 1, 0,13, 0.00,60.00,Monday
769,23.616557612992606
2050,0.0
2,1, 6, 1, 0,14, 0.00,60.00,Monday
769,23.9532860083708
2050,2502.3785166787886
2,1, 6, 1, 0,15, 0.00,60.00,Monday
769,23.749304262892698
2050,7226.712086927978
2,1, 6, 1, 0,16, 0.00,60.00,Monday
769,23.261169578667137
2050,1264.313870731906
2,1, 6, 1, 0,17, 0.00,60.00,Monday
769,23.128129157218795
2050,0.0
2,1, 6, 1, 0,18, 0.00,60.00,Monday
769,22.581337525542627
2050,0.0
2,1, 6, 1, 0,19, 0.00,60.00,Monday
769,22.117176553374084
2050,2782.616403355468
2,1, 6, 1, 0,20, 0.00,60.00,Monday
769,21.780707095527796
2050,167.60597086164598
2,1, 6, 1, 0,21, 0.00,60.00,Monday
769,21.43618689859991
2050,4853.314901829342
2,1, 6, 1, 0,22, 0.00,60.00,Monday
769,21.651153894714196
2050,2726.2880021925177
2,1, 6, 1, 0,23, 0.00,60.00,Monday
769,21.459036667373906
2050,4524.860103697563
2,1, 6, 1, 0,24, 0.00,60.00,Monday
769,21.388985632468644
2050,0.0
2,2, 6, 2, 0, 1, 0.00,60.00,Tuesday
769,21.29252047753548
2050,2326.397578741155
2,2, 6, 2, 0, 2, 0.00,60.00,Tuesday
769,21.18506679144834
2050,2250.2704861807958
2,2, 6, 2, 0, 3, 0.00,60.00,Tuesday
769,21.047040034564739
2050,2153.294752694211
2,2, 6, 2, 0, 4, 0.00,60.00,Tuesday
769,20.897486845173416
2050,2047.3001600939722
2,2, 6, 2, 0, 5, 0.00,60.00,Tuesday
769,20.792796444147226
2050,1972.4279353516743
2,2, 6, 2, 0, 6, 0.00,60.00,Tuesday
769,20.902474793167945
2050,2046.331139319366
2,2, 6, 2, 0, 7, 0.00,60.00,Tuesday
769,21.333349510329066
2050,2347.8731295805507
2,2, 6, 2, 0, 8, 0.00,60.00,Tuesday
769,20.99050403328431
2050,2117.315982212319
2,2, 6, 2, 0, 9, 0.00,60.00,Tuesday
769,21.879243889851286
2050,2724.535435184334
2,2, 6, 2, 0,10, 0.00,60.00,Tuesday
769,22.55054515905641
2050,3207.118297446489
2,2, 6, 2, 0,11, 0.00,60.00,Tuesday
769,23.09838927997027
2050,3594.800149089203
2,2, 6, 2, 0,12, 0.00,60.00,Tuesday
769,23.466339649868993
2050,3857.742074948723
2,2, 6, 2, 0,13, 0.00,60.00,Tuesday
769,23.453804587066988
2050,3854.0631030668826
2,2, 6, 2, 0,14, 0.00,60.00,Tuesday
769,23.425686908405173
2050,3833.645882448456
2,2, 6, 2, 0,15, 0.00,60.00,Tuesday
769,23.065196666946876
2050,3580.828787310063
2,2, 6, 2, 0,16, 0.00,60.00,Tuesday
769,22.869861054611794
2050,3441.1660356002096
2,2, 6, 2, 0,17, 0.00,60.00,Tuesday
769,22.690971062983473
2050,3314.8002546234235
2,2, 6, 2, 0,18, 0.00,60.00,Tuesday
769,22.067925262228657
2050,2881.275909602172
2,2, 6, 2, 0,19, 0.00,60.00,Tuesday
769,21.58891138860706
2050,2539.4318777040045
2,2, 6, 2, 0,20, 0.00,60.00,Tuesday
769,21.300893978780974
2050,2333.44854476279
2,2, 6, 2, 0,21, 0.00,60.00,Tuesday
769,21.07900687609155
2050,2176.3992333715798
2,2, 6, 2, 0,22, 0.00,60.00,Tuesday
769,21.605882490191868
2050,2537.526464101746
2,2, 6, 2, 0,23, 0.00,60.00,Tuesday
769,21.54980280790178
2050,2510.021964975141
2,2, 6, 2, 0,24, 0.00,60.00,Tuesday
769,21.349662039434134
2050,2366.544726191628
End of Data
 Number of Records Written=         192
