Program Version,EnergyPlus, Version 9.4.0-998c4b761e, YMD=2021.07.12 17:32
1,5,Environment Title[],Latitude[deg],Longitude[deg],Time Zone[],Elevation[m]
2,8,Day of Simulation[],Month[],Day of Month[],DST Indicator[1=yes 0=no],Hour[],StartMinute[],EndMinute[],DayType
3,5,Cumulative Day of Simulation[],Month[],Day of Month[],DST Indicator[1=yes 0=no],DayType  ! When Daily Report Variables Requested
4,2,Cumulative Days of Simulation[],Month[]  ! When Monthly Report Variables Requested
5,1,Cumulative Days of Simulation[] ! When Run Period Report Variables Requested
6,1,Calendar Year of Simulation[] ! When Annual Report Variables Requested
7,1,Environment,Site Outdoor Air Drybulb Temperature [C] !Hourly
770,1,PERIMETER_TOP_ZN_4,Zone Mean Air Temperature [C] !Hourly
2050,1,PERI1_TOP_LOTEMP,Zone Radiant HVAC Cooling Rate [W] !Hourly
2053,1,PERI1_TOP_LOTEMP,Zone Radiant HVAC Mass Flow Rate [kg/s] !Hourly
2054,1,PERI1_TOP_LOTEMP,Zone Radiant HVAC Injection Mass Flow Rate [kg/s] !Hourly
2055,1,PERI1_TOP_LOTEMP,Zone Radiant HVAC Recirculation Mass Flow Rate [kg/s] !Hourly
2056,1,PERI1_TOP_LOTEMP,Zone Radiant HVAC Inlet Temperature [C] !Hourly
2057,1,PERI1_TOP_LOTEMP,Zone Radiant HVAC Outlet Temperature [C] !Hourly
2063,1,PERI2_TOP_LOTEMP,Zone Radiant HVAC Outlet Temperature [C] !Hourly
2285,1,PERI1_TOP_LOTEMP_CHW_INLET,System Node Temperature [C] !Hourly
2286,1,PERI1_TOP_LOTEMP_CHW_OUTLET,System Node Temperature [C] !Hourly
End of Data Dictionary
1,ATLANTA-HARTSFIELD.JACKSON.INTL.AP_GA_USA ANN HTG 99.6% CONDNS DB,  33.63, -84.43,  -5.00, 308.00
2,1, 1,21, 0, 1, 0.00,60.00,WinterDesignDay
7,-6.300000000000007
770,17.964595403689655
2050,0.0
2053,0.4578313158078728
2054,0.16587718543716999
2055,0.29195413037070247
2056,35.176805799739067
2057,26.923115877170987
2063,36.16592635820932
2285,12.300492243372443
2286,12.300492243372443
2,1, 1,21, 0, 2, 0.00,60.00,WinterDesignDay
7,-6.300000000000007
770,17.96200965884252
2050,0.0
2053,0.4578313158078728
2054,0.1660973673283343
2055,0.2917339484795381
2056,35.189737875881139
2057,26.931840669519539
2063,36.15724867584637
2285,12.300492243372443
2286,12.300492243372443
2,1, 1,21, 0, 3, 0.00,60.00,WinterDesignDay
7,-6.300000000000007
770,17.95946503769307
2050,0.0
2053,0.4578313158078728
2054,0.1663078984568371
2055,0.2915234173510354
2056,35.202464540046069
2057,26.9404848962025
2063,36.149431274486918
2285,12.300492243372443
2286,12.300492243372443
2,1, 1,21, 0, 4, 0.00,60.00,WinterDesignDay
7,-6.300000000000007
770,17.956965602584945
2050,0.0
2053,0.4578313158078728
2054,0.16651002808922445
2055,0.2913212877186481
2056,35.21496569285079
2057,26.94900122801439
2063,36.14232663895557
2285,12.300492243372443
2286,12.300492243372443
2,1, 1,21, 0, 5, 0.00,60.00,WinterDesignDay
7,-6.300000000000007
770,17.95451646423019
2050,0.0
2053,0.4578313158078728
2054,0.1667043413603285
2055,0.29112697444754406
2056,35.22721577276659
2057,26.957363471807196
2063,36.135826721436767
2285,12.300492243372443
2286,12.300492243372443
2,1, 1,21, 0, 6, 0.00,60.00,WinterDesignDay
7,-6.300000000000007
770,17.95212209418411
2050,0.0
2053,0.4578313158078728
2054,0.16689121436993413
2055,0.2909401014379384
2056,35.23919234274216
2057,26.965552662458835
2063,36.129850346226579
2285,12.300492243372443
2286,12.300492243372443
2,1, 1,21, 0, 7, 0.00,60.00,WinterDesignDay
7,-6.300000000000007
770,18.403395737911376
2050,0.0
2053,0.4578313158078728
2054,0.13176950014509837
2055,0.32606181566277417
2056,33.01990143833867
2057,26.241560389223353
2063,36.165017174755607
2285,12.300492243372443
2286,12.300492243372443
2,1, 1,21, 0, 8, 0.00,60.00,WinterDesignDay
7,-6.300000000000007
770,18.358729529953899
2050,0.0
2053,0.4578313158078728
2054,0.1424126746889411
2055,0.31541864111893155
2056,33.201920072802817
2057,25.707548338224848
2063,36.20982249485727
2285,12.300492243372443
2286,12.300492243372443
2,1, 1,21, 0, 9, 0.00,60.00,WinterDesignDay
7,-6.300000000000007
770,18.335631431568623
2050,0.0
2053,0.4578313158078728
2054,0.14538646570532999
2055,0.31244485010254266
2056,33.32128843326497
2057,25.65046356469327
2063,36.2275433327676
2285,12.300492243372443
2286,12.300492243372443
2,1, 1,21, 0,10, 0.00,60.00,WinterDesignDay
7,-6.300000000000007
770,18.33390380033078
2050,0.0
2053,0.4578313158078728
2054,0.14554993827294139
2055,0.3122813775349312
2056,33.33054621286812
2057,25.644575259528734
2063,36.24120028774592
2285,12.300492243372443
2286,12.300492243372443
2,1, 1,21, 0,11, 0.00,60.00,WinterDesignDay
7,-6.300000000000007
770,18.335309731677726
2050,0.0
2053,0.4578313158078728
2054,0.14538992527468434
2055,0.31244139053318817
2056,33.3235917927617
2057,25.640475114876407
2063,36.253033833796838
2285,12.300492243372443
2286,12.300492243372443
2,1, 1,21, 0,12, 0.00,60.00,WinterDesignDay
7,-6.300000000000007
770,18.337033939958347
2050,0.0
2053,0.4578313158078728
2054,0.14522422107340647
2055,0.3126070947344661
2056,33.314974446883237
2057,25.635238256424836
2063,36.26330483291544
2285,12.300492243372443
2286,12.300492243372443
2,1, 1,21, 0,13, 0.00,60.00,WinterDesignDay
7,-6.300000000000007
770,18.338751013329028
2050,0.0
2053,0.4578313158078728
2054,0.14507350264769765
2055,0.31275781316017489
2056,33.30638694002909
2057,25.6295753400909
2063,36.272275806390918
2285,12.300492243372443
2286,12.300492243372443
2,1, 1,21, 0,14, 0.00,60.00,WinterDesignDay
7,-6.300000000000007
770,18.340441954293273
2050,0.0
2053,0.4578313158078728
2054,0.14493315516390976
2055,0.3128981606439628
2056,33.29793007491978
2057,25.623840358757808
2063,36.2802051929599
2285,12.300492243372443
2286,12.300492243372443
2,1, 1,21, 0,15, 0.00,60.00,WinterDesignDay
7,-6.300000000000007
770,18.34210588407083
2050,0.0
2053,0.4578313158078728
2054,0.14480048557048279
2055,0.3130308302373898
2056,33.28960803053012
2057,25.618146176043454
2063,36.287295285031287
2285,12.300492243372443
2286,12.300492243372443
2,1, 1,21, 0,16, 0.00,60.00,WinterDesignDay
7,-6.300000000000007
770,18.343738530173899
2050,0.0
2053,0.4578313158078728
2054,0.1446744340497494
2055,0.313156881758123
2056,33.281441980282078
2057,25.612535617261015
2063,36.29369302702556
2285,12.300492243372443
2286,12.300492243372443
2,1, 1,21, 0,17, 0.00,60.00,WinterDesignDay
7,-6.300000000000007
770,18.34533479105235
2050,0.0
2053,0.4578313158078728
2054,0.1445544978281941
2055,0.31327681797967846
2056,33.27345744876332
2057,25.607033624312366
2063,36.29950494077677
2285,12.300492243372443
2286,12.300492243372443
2,1, 1,21, 0,18, 0.00,60.00,WinterDesignDay
7,-6.300000000000007
770,18.34689022234915
2050,0.0
2053,0.4578313158078728
2054,0.14444034902887777
2055,0.3133909667789948
2056,33.26567673373818
2057,25.601658747352166
2063,36.3048103828226
2285,12.300492243372443
2286,12.300492243372443
2,1, 1,21, 0,19, 0.00,60.00,WinterDesignDay
7,-6.300000000000007
770,17.89781811362603
2050,0.0
2053,0.4578313158078728
2054,0.17880901852058077
2055,0.2790222972872918
2056,35.47406816916877
2057,26.322901666048879
2063,36.26903114825153
2285,12.300492243372443
2286,12.300492243372443
2,1, 1,21, 0,20, 0.00,60.00,WinterDesignDay
7,-6.300000000000007
770,17.93747155170744
2050,0.0
2053,0.4578313158078728
2054,0.16908945065658116
2055,0.2887418651512912
2056,35.31677244162074
2057,26.861220354420405
2063,36.22337329033436
2285,12.300492243372443
2286,12.300492243372443
2,1, 1,21, 0,21, 0.00,60.00,WinterDesignDay
7,-6.300000000000007
770,17.959809366125339
2050,0.0
2053,0.4578313158078728
2054,0.16600384910434566
2055,0.29182746670352679
2056,35.201500135963488
2057,26.927122297858369
2063,36.20465072806204
2285,12.300492243372443
2286,12.300492243372443
2,1, 1,21, 0,22, 0.00,60.00,WinterDesignDay
7,-6.300000000000007
770,17.961195252181846
2050,0.0
2053,0.4578313158078728
2054,0.16584532837424258
2055,0.29198598743362988
2056,35.193912096477
2057,26.936241665591248
2063,36.19031963812651
2285,12.300492243372443
2286,12.300492243372443
2,1, 1,21, 0,23, 0.00,60.00,WinterDesignDay
7,-6.300000000000007
770,17.959129301194204
2050,0.0
2053,0.4578313158078728
2054,0.16607152782987295
2055,0.2917597879779994
2056,35.204153263537467
2057,26.942694978473658
2063,36.17785378443098
2285,12.300492243372443
2286,12.300492243372443
2,1, 1,21, 0,24, 0.00,60.00,WinterDesignDay
7,-6.300000000000007
770,17.95667455656382
2050,0.0
2053,0.4578313158078728
2054,0.16631097994259018
2055,0.29152033586528255
2056,35.216421905251319
2057,26.95030420669694
2063,36.166951668458867
2285,12.300492243372443
2286,12.300492243372443
1,ATLANTA-HARTSFIELD.JACKSON.INTL.AP_GA_USA ANN CLG .4% CONDNS DB=>MWB,  33.63, -84.43,  -5.00, 308.00
2,1, 7,21, 0, 1, 0.00,60.00,SummerDesignDay
7,26.32025
770,23.933897380278379
2050,11944.947024612573
2053,0.46560681144595175
2054,0.4640039615454586
2055,0.0016028499004933528
2056,7.132344653495278
2057,13.247849982344924
2063,28.836739742047159
2285,7.050509862695408
2286,13.226113199977709
2,1, 7,21, 0, 2, 0.00,60.00,SummerDesignDay
7,25.84683333333334
770,23.374683100358305
2050,9833.103146108277
2053,0.46560681144595175
2054,0.46560681144595175
2055,0.0
2056,7.1656624312888319
2057,12.199999319336959
2063,28.228304126204195
2285,7.119586882741276
2286,12.199999319336959
2,1, 7,21, 0, 3, 0.00,60.00,SummerDesignDay
7,25.515125
770,23.045966085289594
2050,8857.625747862516
2053,0.46560681144595175
2054,0.46560681144595175
2055,0.0
2056,7.330814560488765
2057,11.865980287248585
2063,28.126976449528489
2285,7.284739011941207
2286,11.865980287248585
2,1, 7,21, 0, 4, 0.00,60.00,SummerDesignDay
7,25.230124999999995
770,22.821622528814208
2050,8395.516441899797
2053,0.46560681144595175
2054,0.46560681144595175
2055,0.0
2056,7.472038386385395
2057,11.77080402463747
2063,28.137311116922498
2285,7.4259628378378379
2286,11.77080402463747
2,1, 7,21, 0, 5, 0.00,60.00,SummerDesignDay
7,24.993416666666673
770,22.64656270876076
2050,8134.944039933102
2053,0.46560681144595175
2054,0.46560681144595175
2055,0.0
2056,7.590103224152427
2057,11.755612263503688
2063,27.840925266545026
2285,7.544027675604871
2286,11.755612263503688
2,1, 7,21, 0, 6, 0.00,60.00,SummerDesignDay
7,24.996583333333335
770,22.50777637126499
2050,8104.980124636326
2053,0.46560681144595175
2054,0.46560681144595175
2055,0.0
2056,7.591649464180255
2057,11.741817681056894
2063,28.005379833598146
2285,7.545573915632698
2286,11.741817681056894
2,1, 7,21, 0, 7, 0.00,60.00,SummerDesignDay
7,25.42804166666666
770,22.7769355699388
2050,8521.407187963161
2053,0.46560681144595175
2054,0.46560681144595175
2055,0.0
2056,7.381778866511852
2057,11.744870134204577
2063,30.00678122542446
2285,7.335703317964299
2286,11.744870134204577
2,1, 7,21, 0, 8, 0.00,60.00,SummerDesignDay
7,26.575958333333334
770,22.94761402688525
2050,9447.910085714251
2053,0.46560681144595175
2054,0.45272999531510968
2055,0.012876816130842446
2056,7.030416830142341
2057,11.86732671743861
2063,30.00678122542446
2285,6.840959799294428
2286,11.723945235138256
2,1, 7,21, 0, 9, 0.00,60.00,SummerDesignDay
7,28.287541666666664
770,23.244240007794426
2050,10185.70663172612
2053,0.46560681144595175
2054,0.4441556719075371
2055,0.02145113953841502
2056,7.0
2057,12.214578004458577
2063,30.00678122542446
2285,6.699999999999995
2286,11.960653553006138
2,1, 7,21, 0,10, 0.00,60.00,SummerDesignDay
7,29.995958333333328
770,23.62677103419878
2050,11119.233774688299
2053,0.46560681144595175
2054,0.4458668263295715
2055,0.019739985116380974
2056,7.0
2057,12.69249772885875
2063,30.00678122542446
2285,6.699999999999993
2286,12.438573277406313
2,1, 7,21, 0,11, 0.00,60.00,SummerDesignDay
7,31.514374999999995
770,24.000177919982649
2050,11984.379594420536
2053,0.46560681144595175
2054,0.44722917398429137
2055,0.01837763746166084
2056,7.0
2057,13.135409597945302
2063,30.00678122542446
2285,6.699999999999993
2286,12.881485146492853
2,1, 7,21, 0,12, 0.00,60.00,SummerDesignDay
7,32.697916666666667
770,24.30960254040021
2050,12670.633032254973
2053,0.46560681144595175
2054,0.45089601274200688
2055,0.014710798703945264
2056,7.0013829983349089
2057,13.488123450394678
2063,30.00678122542446
2285,6.728541419682424
2286,13.27486969556382
2,1, 7,21, 0,13, 0.00,60.00,SummerDesignDay
7,33.55133333333333
770,24.543700763805114
2050,12812.375462738291
2053,0.46560681144595175
2054,0.46560681144595175
2055,0.0
2056,7.240349205614625
2057,13.800177921636826
2063,30.00678122542446
2285,7.154480743961866
2286,13.800177921636826
2,1, 7,21, 0,14, 0.00,60.00,SummerDesignDay
7,34.16645833333333
770,25.231246249208536
2050,12884.377276361121
2053,0.46560681144595175
2054,0.46560681144595175
2055,0.0
2056,8.014479356739186
2057,14.612879727109494
2063,30.00678122542446
2285,7.928271089170919
2286,14.612879727109494
2,1, 7,21, 0,15, 0.00,60.00,SummerDesignDay
7,34.40000000000004
770,26.791945736854989
2050,12967.114423897172
2053,0.46560681144595175
2054,0.46560681144595175
2055,0.0
2056,10.275419947405899
2057,16.921045207275275
2063,30.00678122542446
2285,10.189138500438077
2286,16.92104520727527
2,1, 7,21, 0,16, 0.00,60.00,SummerDesignDay
7,34.110250000000018
770,28.40309917089319
2050,12948.164579102831
2053,0.46560681144595175
2054,0.46560681144595175
2055,0.0
2056,12.894405769656287
2057,19.535372182126325
2063,30.00678122542446
2285,12.819718051227414
2286,19.53537218212632
2,1, 7,21, 0,17, 0.00,60.00,SummerDesignDay
7,33.44366666666667
770,29.466083583985204
2050,12949.375526206373
2053,0.46560681144595175
2054,0.46560681144595175
2055,0.0
2056,14.854443514291307
2057,21.49964876228921
2063,30.00678122542446
2285,14.785465452512364
2286,21.49964876228921
2,1, 7,21, 0,18, 0.00,60.00,SummerDesignDay
7,32.58708333333333
770,30.113523915534853
2050,12932.554117242387
2053,0.46560681144595175
2054,0.46560681144595175
2055,0.0
2056,17.53377412209186
2057,24.17395238619558
2063,30.00678122542446
2285,17.44391104417622
2286,24.17395238619558
2,1, 7,21, 0,19, 0.00,60.00,SummerDesignDay
7,31.395624999999997
770,29.906698989008654
2050,12768.551103634785
2053,0.46560681144595175
2054,0.46560681144595175
2055,0.0
2056,18.951678880213004
2057,25.509431229220355
2063,30.00678122542446
2285,18.86225223297204
2286,25.509431229220355
2,1, 7,21, 0,20, 0.00,60.00,SummerDesignDay
7,30.16379166666667
770,28.509374727386719
2050,12567.610915175119
2053,0.46560681144595175
2054,0.46560681144595175
2055,0.0
2056,17.408966127231403
2057,23.861618512708984
2063,30.00678122542446
2285,17.32146006373411
2286,23.861618512708984
2,1, 7,21, 0,21, 0.00,60.00,SummerDesignDay
7,29.215374999999999
770,27.16019204813483
2050,12600.202271478893
2053,0.46560681144595175
2054,0.46560681144595175
2055,0.0
2056,13.900593472549629
2057,20.364926424680367
2063,30.00678122542446
2285,13.828683558678313
2286,20.364926424680367
2,1, 7,21, 0,22, 0.00,60.00,SummerDesignDay
7,28.360375
770,26.251782152435167
2050,12712.010547708924
2053,0.46560681144595175
2054,0.46560681144595175
2055,0.0
2056,11.637810076274763
2057,18.15530765857488
2063,30.00678122542446
2285,11.56061013908036
2286,18.15530765857488
2,1, 7,21, 0,23, 0.00,60.00,SummerDesignDay
7,27.60195833333334
770,25.440063966580057
2050,12723.046712841102
2053,0.46560681144595175
2054,0.46560681144595175
2055,0.0
2056,10.583480033968045
2057,17.10466837645123
2063,30.00678122542446
2285,10.502146653934668
2286,17.10466837645123
2,1, 7,21, 0,24, 0.00,60.00,SummerDesignDay
7,26.936958333333334
770,24.75719624211745
2050,12643.577392216155
2053,0.46560681144595175
2054,0.46560681144595175
2055,0.0
2056,8.935630629377498
2057,15.4127023164263
2063,30.00678122542446
2285,8.8510918009192
2286,15.4127023164263
1,RUNPERIOD 1,  33.63, -84.43,  -5.00, 308.00
2,1, 7, 1, 0, 1, 0.00,60.00,Monday
7,21.118333333333337
770,20.248369552458788
2050,4191.814149902574
2053,0.46560681144595175
2054,0.2543388000577556
2055,0.2112680113881966
2056,11.378093008786049
2057,13.527092811294763
2063,11.989915850591054
2285,9.483682634680852
2286,11.678822366428154
2,1, 7, 1, 0, 2, 0.00,60.00,Monday
7,22.098333333333334
770,20.26283114176796
2050,4480.961405469622
2053,0.46560681144595175
2054,0.23410368071657618
2055,0.2315031307293759
2056,11.34211412590471
2057,13.639326496200912
2063,11.989915850591054
2285,8.978645698011276
2286,11.321997522050488
2,1, 7, 1, 0, 3, 0.00,60.00,Monday
7,21.949166666666675
770,20.227507980810338
2050,4426.429991940177
2053,0.46560681144595175
2054,0.23206017628090676
2055,0.2335466351650454
2056,11.429595742984237
2057,13.698908723616486
2063,11.989915850591054
2285,9.053182680500783
2286,11.368636271102348
2,1, 7, 1, 0, 4, 0.00,60.00,Monday
7,21.79833333333333
770,20.190452417285536
2050,4321.995849832265
2053,0.46560681144595175
2054,0.22839660531472046
2055,0.23721020613123176
2056,11.522479890287661
2057,13.73831125121619
2063,11.989915850591054
2285,9.12711011229201
2286,11.389083310770733
2,1, 7, 1, 0, 5, 0.00,60.00,Monday
7,21.700000000000025
770,20.17186098588157
2050,4305.591243337659
2053,0.46560681144595175
2054,0.22809276659448028
2055,0.23751404485147174
2056,11.570253919361488
2057,13.777705149534258
2063,11.989915850591054
2285,9.17746145709765
2286,11.431055156302984
2,1, 7, 1, 0, 6, 0.00,60.00,Monday
7,21.954166666666663
770,20.200295052657773
2050,4503.51747745066
2053,0.46560681144595175
2054,0.23053933511332423
2055,0.23506747633262799
2056,11.502488058227105
2057,13.8113691922145
2063,12.695882653618746
2285,9.055628117218623
2286,11.410650824540414
2,1, 7, 1, 0, 7, 0.00,60.00,Monday
7,22.200000000000025
770,20.381781981984468
2050,5365.750939295688
2053,0.46560681144595175
2054,0.267122489099191
2055,0.19848432234676115
2056,11.054562051007695
2057,13.805138960275518
2063,18.773698029078959
2285,8.929769780679277
2286,11.726482343740403
2,1, 7, 1, 0, 8, 0.00,60.00,Monday
7,23.31833333333333
770,20.613443220563249
2050,6381.332624970551
2053,0.46560681144595175
2054,0.2887230984429421
2055,0.17688371300301013
2056,10.476306245719553
2057,13.746946927194627
2063,9.984710967801516
2285,8.393592544590764
2286,11.710361240140124
2,1, 7, 1, 0, 9, 0.00,60.00,Monday
7,25.823333333333335
770,21.550351441759518
2050,9960.8650757512
2053,0.46560681144595175
2054,0.3927842678624055
2055,0.07282254358354658
2056,8.172141943439956
2057,13.273493688681901
2063,9.704939113586189
2285,7.177778821195637
2286,12.325224134561518
2,1, 7, 1, 0,10, 0.00,60.00,Monday
7,27.759166666666667
770,22.071487139798035
2050,11187.11231960843
2053,0.46560681144595175
2054,0.4415193394554044
2055,0.024087471990547759
2056,7.061729309477459
2057,12.789093094637149
2063,9.704939113586189
2285,6.700000005584965
2286,12.473440288534569
2,1, 7, 1, 0,11, 0.00,60.00,Monday
7,29.164166666666668
770,22.442168047013426
2050,11587.753873490436
2053,0.46560681144595175
2054,0.4466336365739068
2055,0.01897317487204547
2056,7.0
2057,12.932356846168356
2063,9.704939113586189
2285,6.699999999999993
2286,12.678432394715913
2,1, 7, 1, 0,12, 0.00,60.00,Monday
7,30.0
770,22.752871908882786
2050,12125.056546975502
2053,0.46560681144595175
2054,0.44743635714120347
2055,0.0181704543047488
2056,7.0
2057,13.20742923968939
2063,9.704939113586189
2285,6.699999999999993
2286,12.953504788236947
2,1, 7, 1, 0,13, 0.00,60.00,Monday
7,30.86416666666667
770,22.737568061656356
2050,12479.160311842772
2053,0.46560681144595175
2054,0.44793007377330137
2055,0.01767673767265069
2056,7.0
2057,13.388712853122888
2063,9.704939113586189
2285,6.699999999999993
2286,13.134788401670447
2,1, 7, 1, 0,14, 0.00,60.00,Monday
7,29.717500000000006
770,23.09666765459645
2050,12793.821565694101
2053,0.46560681144595175
2054,0.45734404236718637
2055,0.008262769078765579
2056,7.02651194191527
2057,13.576373808702276
2063,9.704939113586189
2285,6.830546565239625
2286,13.455767654538994
2,1, 7, 1, 0,15, 0.00,60.00,Monday
7,28.613333333333335
770,23.813717778162297
2050,12859.381056627455
2053,0.46560681144595175
2054,0.46560681144595175
2055,0.0
2056,7.581943698928296
2057,14.16659065808529
2063,9.704939113586189
2285,7.4958570004770899
2286,14.16659065808529
2,1, 7, 1, 0,16, 0.00,60.00,Monday
7,28.0275
770,23.79886582805301
2050,12781.17330064552
2053,0.46560681144595175
2054,0.46560681144595175
2055,0.0
2056,8.38597268596342
2057,14.932329284610795
2063,9.704939113586189
2285,8.300274674334269
2286,14.932329284610795
2,1, 7, 1, 0,17, 0.00,60.00,Monday
7,25.276666666666665
770,23.05819209161995
2050,12157.833222935882
2053,0.46560681144595175
2054,0.46560681144595175
2055,0.0
2056,7.799665812085667
2057,14.0255278834644
2063,9.704939113586189
2285,7.733523351807594
2286,14.0255278834644
2,1, 7, 1, 0,18, 0.00,60.00,Monday
7,23.594999999999997
770,21.88708758106141
2050,9681.174022553401
2053,0.46560681144595175
2054,0.46560681144595175
2055,0.0
2056,8.279464734671072
2057,13.237857495466507
2063,9.704939113586189
2285,8.233382334380553
2286,13.237857495466507
2,1, 7, 1, 0,19, 0.00,60.00,Monday
7,23.604999999999995
770,21.286752808197517
2050,8172.901435709375
2053,0.46560681144595175
2054,0.41660369859320336
2055,0.04900311285274879
2056,8.788796594693672
2057,12.97539785251148
2063,9.704939113586189
2285,8.2384173912346
2286,12.471121338742288
2,1, 7, 1, 0,20, 0.00,60.00,Monday
7,21.917500000000005
770,20.891110131329545
2050,6442.029627227312
2053,0.46560681144595175
2054,0.3900666920852932
2055,0.07554011936065892
2056,9.753304551540952
2057,13.054295946247054
2063,27.002230639381023
2285,9.03786045854592
2286,12.38496967006333
2,1, 7, 1, 0,21, 0.00,60.00,Monday
7,20.304999999999994
770,20.5366127397046
2050,4871.428658273867
2053,0.46560681144595175
2054,0.3627220969469376
2055,0.1028847144990146
2056,10.64988172796104
2057,13.146771760242347
2063,27.919248455350475
2285,9.873288190102727
2286,12.416308529441384
2,1, 7, 1, 0,22, 0.00,60.00,Monday
7,20.294999999999996
770,20.420365743008558
2050,4465.97649793046
2053,0.46560681144595175
2054,0.3230131918871909
2055,0.14259361955876119
2056,10.946581578207339
2057,13.235851983206845
2063,25.48034884915506
2285,9.868789815972605
2286,12.204194447946481
2,1, 7, 1, 0,23, 0.00,60.00,Monday
7,20.0
770,20.348507337600898
2050,4198.416823340712
2053,0.46560681144595175
2054,0.3141954965599413
2055,0.15141131488601088
2056,11.125689117838851
2057,13.277918253303584
2063,11.988016207623561
2285,10.01977175868037
2286,12.218137487738935
2,1, 7, 1, 0,24, 0.00,60.00,Monday
7,20.0
770,20.30609853835778
2050,4211.378039868882
2053,0.46560681144595175
2054,0.3044681793483982
2055,0.161138632097554
2056,11.233193088386031
2057,13.39213336953592
2063,11.988016207623561
2285,10.019819819819825
2286,12.224898115215764
2,2, 7, 2, 0, 1, 0.00,60.00,Tuesday
7,20.0
770,20.217523289219338
2050,4061.035645382477
2053,0.46560681144595175
2054,0.28201936155477316
2055,0.18358744989117907
2056,11.45214230572463
2057,13.534140639685186
2063,11.988016207623561
2285,10.019819819819825
2286,12.147959061672925
2,2, 7, 2, 0, 2, 0.00,60.00,Tuesday
7,20.0
770,20.181161952564599
2050,4136.760772650149
2053,0.46560681144595175
2054,0.27665779156802186
2055,0.1889490198779303
2056,11.54605455699282
2057,13.666932742439986
2063,11.988016207623561
2285,10.019819819819825
2286,12.186840154418555
2,2, 7, 2, 0, 3, 0.00,60.00,Tuesday
7,19.440833333333335
770,20.127598681011027
2050,4018.2836856103356
2053,0.46560681144595175
2054,0.2845019011340012
2055,0.18110491031195079
2056,11.677047233660498
2057,13.73725955460879
2063,11.988016207623561
2285,10.287888412389302
2286,12.39424461403004
2,2, 7, 2, 0, 4, 0.00,60.00,Tuesday
7,19.154166666666666
770,20.05147097441883
2050,3750.1355466204388
2053,0.46560681144595175
2054,0.2738918236510489
2055,0.19171498779490318
2056,11.869766669458631
2057,13.792603912905234
2063,11.988016207623561
2285,10.442927392517003
2286,12.411911064210753
2,2, 7, 2, 0, 5, 0.00,60.00,Tuesday
7,19.399999999999996
770,20.018905086083888
2050,3613.539690061443
2053,0.46560681144595175
2054,0.25356463869937098
2055,0.21204217274658114
2056,11.951382519668574
2057,13.80422515920297
2063,11.988016207623561
2285,10.317157168066668
2286,12.216147314848909
2,2, 7, 2, 0, 6, 0.00,60.00,Tuesday
7,19.399999999999996
770,20.014436377972677
2050,3634.3981943007518
2053,0.46560681144595175
2054,0.2532240073642049
2055,0.21238280408174718
2056,11.964916337492526
2057,13.828461447586161
2063,11.988016207623561
2285,10.31711711711712
2286,12.226809913416622
2,2, 7, 2, 0, 7, 0.00,60.00,Tuesday
7,19.705
770,20.15814504548592
2050,4232.596333710276
2053,0.46560681144595175
2054,0.2853457567957392
2055,0.18026105465021295
2056,11.614869568324595
2057,13.784919505711711
2063,12.533380636086524
2285,10.17089788480649
2286,12.387090881033809
2,2, 7, 2, 0, 8, 0.00,60.00,Tuesday
7,21.118333333333337
770,20.510788931576025
2050,5845.209878626678
2053,0.46560681144595175
2054,0.3329032730683174
2055,0.13270353837763475
2056,10.738739114046807
2057,13.734810136896954
2063,11.7232803256484
2285,9.48373069582031
2286,12.525933199814374
2,2, 7, 2, 0, 9, 0.00,60.00,Tuesday
7,23.62333333333333
770,21.49524008677577
2050,9524.105123459794
2053,0.46560681144595175
2054,0.45237184993522935
2055,0.013234961510722414
2056,8.431651944567968
2057,13.30975579190055
2063,11.585407599339309
2285,8.247549536458142
2286,13.17174903463451
2,2, 7, 2, 0,10, 0.00,60.00,Tuesday
7,25.55916666666667
770,21.877590798939786
2050,10623.022209448396
2053,0.46560681144595175
2054,0.46560681144595175
2055,0.0
2056,7.320578430181511
2057,12.75961863686848
2063,11.585407599339309
2285,7.274498035090321
2286,12.759618636868478
2,2, 7, 2, 0,11, 0.00,60.00,Tuesday
7,26.65916666666666
770,22.093103444674619
2050,10939.241432316807
2053,0.46560681144595175
2054,0.45194135888303579
2055,0.01366545256291634
2056,7.002100420664467
2057,12.602454891785204
2063,11.585407599339309
2285,6.783661685662576
2286,12.43009173618894
2,2, 7, 2, 0,12, 0.00,60.00,Tuesday
7,28.06416666666667
770,22.30833459700334
2050,11139.463460008663
2053,0.46560681144595175
2054,0.4459102428079255
2055,0.01969656863802666
2056,7.0
2057,12.702854327170757
2063,11.585407599339309
2285,6.699999999999993
2286,12.448929875718314
2,2, 7, 2, 0,13, 0.00,60.00,Tuesday
7,29.459166666666666
770,22.27389093198339
2050,11471.376522446688
2053,0.46560681144595175
2054,0.44645203336044489
2055,0.019154778085507436
2056,7.0
2057,12.872777398525555
2063,11.585407599339309
2285,6.699999999999993
2286,12.618852947073114
2,2, 7, 2, 0,14, 0.00,60.00,Tuesday
7,29.440833333333328
770,23.185042009234754
2050,12475.149427006538
2053,0.46560681144595175
2054,0.4534196398676606
2055,0.012187171578291419
2056,7.084728895608335
2057,13.471575093271233
2063,11.585407599339309
2285,6.851813754446824
2286,13.299757871350815
2,2, 7, 2, 0,15, 0.00,60.00,Tuesday
7,29.76416666666667
770,24.373651228873976
2050,12908.394104496774
2053,0.46560681144595175
2054,0.46560681144595175
2055,0.0
2056,8.43403886227782
2057,15.045663187367321
2063,11.585407599339309
2285,8.347711616881974
2286,15.045663187367321
2,2, 7, 2, 0,16, 0.00,60.00,Tuesday
7,30.854166666666669
770,25.881954425005146
2050,12958.871063503972
2053,0.46560681144595175
2054,0.46560681144595175
2055,0.0
2056,10.735319700383166
2057,17.37764530634221
2063,11.585407599339309
2285,10.649437824969607
2286,17.37764530634221
2,2, 7, 2, 0,17, 0.00,60.00,Tuesday
7,30.84583333333334
770,27.167320025312248
2050,12929.964043812726
2053,0.46560681144595175
2054,0.46560681144595175
2055,0.0
2056,13.094011432343882
2057,19.726022291402804
2063,11.585407599339309
2285,13.021276590893088
2286,19.726022291402804
2,2, 7, 2, 0,18, 0.00,60.00,Tuesday
7,30.59999999999997
770,27.366826869161615
2050,12897.37621296515
2053,0.46560681144595175
2054,0.46560681144595175
2055,0.0
2056,14.583551452801528
2057,21.201667819623578
2063,11.585407599339309
2285,14.520891751503905
2286,21.20166781962357
2,2, 7, 2, 0,19, 0.00,60.00,Tuesday
7,29.430833333333337
770,26.416967895120036
2050,12775.461828706042
2053,0.46560681144595175
2054,0.46560681144595175
2055,0.0
2056,15.218998476553628
2057,21.775612136591425
2063,12.507166580352488
2285,15.143154615386445
2286,21.77561213659142
2,2, 7, 2, 0,20, 0.00,60.00,Tuesday
7,26.927500000000003
770,24.91931546049936
2050,12671.581208625763
2053,0.46560681144595175
2054,0.46560681144595175
2055,0.0
2056,13.83904238910243
2057,20.33991638293525
2063,29.87973731332751
2285,13.771523212945564
2286,20.33991638293525
2,2, 7, 2, 0,21, 0.00,60.00,Tuesday
7,24.430833333333334
770,23.371591944645084
2050,12690.472365072785
2053,0.46560681144595175
2054,0.46560681144595175
2055,0.0
2056,11.612355699267653
2057,18.11876230303621
2063,29.686235021905604
2285,11.536195120127533
2286,18.11876230303621
2,2, 7, 2, 0,22, 0.00,60.00,Tuesday
7,23.045833333333339
770,22.58026337791143
2050,12643.524336068605
2053,0.46560681144595175
2054,0.46560681144595175
2055,0.0
2056,10.00013014094171
2057,16.479396152579488
2063,25.57838267641818
2285,9.918924386379148
2286,16.479396152579488
2,2, 7, 2, 0,23, 0.00,60.00,Tuesday
7,22.494999999999999
770,21.76138735076939
2050,9927.972330078717
2053,0.46560681144595175
2054,0.46560681144595175
2055,0.0
2056,8.824809996240399
2057,13.910519541436545
2063,13.071573661088348
2285,8.778724887428972
2286,13.910519541436547
2,2, 7, 2, 0,24, 0.00,60.00,Tuesday
7,21.640833333333334
770,21.15950561653472
2050,6845.20165812604
2053,0.46560681144595175
2054,0.46418054146878687
2055,0.0014262699771651613
2056,9.253489909846387
2057,12.760513276405069
2063,11.995034862867473
2285,9.197750261159757
2286,12.750881215605885
End of Data
 Number of Records Written=        1056
