Program Version,EnergyPlus, Version 9.4.0-998c4b761e, YMD=2021.07.02 01:04
1,5,Environment Title[],Latitude[deg],Longitude[deg],Time Zone[],Elevation[m]
2,8,Day of Simulation[],Month[],Day of Month[],DST Indicator[1=yes 0=no],Hour[],StartMinute[],EndMinute[],DayType
3,5,Cumulative Day of Simulation[],Month[],Day of Month[],DST Indicator[1=yes 0=no],DayType  ! When Daily Report Variables Requested
4,2,Cumulative Days of Simulation[],Month[]  ! When Monthly Report Variables Requested
5,1,Cumulative Days of Simulation[] ! When Run Period Report Variables Requested
6,1,Calendar Year of Simulation[] ! When Annual Report Variables Requested
769,1,PERIMETER_TOP_ZN_1,Zone Mean Air Temperature [C] !Hourly
2050,1,PERI1_TOP_LOTEMP,Zone Radiant HVAC Cooling Rate [W] !Hourly
2053,1,PERI1_TOP_LOTEMP,Zone Radiant HVAC Mass Flow Rate [kg/s] !Hourly
2054,1,PERI1_TOP_LOTEMP,Zone Radiant HVAC Injection Mass Flow Rate [kg/s] !Hourly
2055,1,PERI1_TOP_LOTEMP,Zone Radiant HVAC Recirculation Mass Flow Rate [kg/s] !Hourly
2056,1,PERI1_TOP_LOTEMP,Zone Radiant HVAC Inlet Temperature [C] !Hourly
2057,1,PERI1_TOP_LOTEMP,Zone Radiant HVAC Outlet Temperature [C] !Hourly
2282,1,PERI1_TOP_LOTEMP_CHW_INLET,System Node Temperature [C] !Hourly
2283,1,PERI1_TOP_LOTEMP_CHW_OUTLET,System Node Temperature [C] !Hourly
End of Data Dictionary
1,ATLANTA-HARTSFIELD.JACKSON.INTL.AP_GA_USA ANN HTG 99.6% CONDNS DB,  41.98, -87.92,  -6.00, 201.00
2,1, 1,21, 0, 1, 0.00,60.00,WinterDesignDay
769,13.407002486817938
2050,0.0
2053,0.0
2054,0.0
2055,0.0
2056,15.0
2057,15.0
2282,12.200000000000009
2283,12.200000000000009
2,1, 1,21, 0, 2, 0.00,60.00,WinterDesignDay
769,13.39567357350672
2050,0.0
2053,0.0
2054,0.0
2055,0.0
2056,15.0
2057,15.0
2282,12.200000000000009
2283,12.200000000000009
2,1, 1,21, 0, 3, 0.00,60.00,WinterDesignDay
769,13.385288110877545
2050,0.0
2053,0.0
2054,0.0
2055,0.0
2056,15.0
2057,15.0
2282,12.200000000000009
2283,12.200000000000009
2,1, 1,21, 0, 4, 0.00,60.00,WinterDesignDay
769,13.375912109137177
2050,0.0
2053,0.0
2054,0.0
2055,0.0
2056,15.0
2057,15.0
2282,12.200000000000009
2283,12.200000000000009
2,1, 1,21, 0, 5, 0.00,60.00,WinterDesignDay
769,13.367303687839942
2050,0.0
2053,0.0
2054,0.0
2055,0.0
2056,15.0
2057,15.0
2282,12.200000000000009
2283,12.200000000000009
2,1, 1,21, 0, 6, 0.00,60.00,WinterDesignDay
769,13.359413524363993
2050,0.0
2053,0.0
2054,0.0
2055,0.0
2056,15.0
2057,15.0
2282,12.200000000000009
2283,12.200000000000009
2,1, 1,21, 0, 7, 0.00,60.00,WinterDesignDay
769,13.751508992866614
2050,0.0
2053,0.0
2054,0.0
2055,0.0
2056,15.0
2057,15.0
2282,12.200000000000009
2283,12.200000000000009
2,1, 1,21, 0, 8, 0.00,60.00,WinterDesignDay
769,13.840722040162598
2050,0.0
2053,0.0
2054,0.0
2055,0.0
2056,15.0
2057,15.0
2282,12.200000000000009
2283,12.200000000000009
2,1, 1,21, 0, 9, 0.00,60.00,WinterDesignDay
769,13.863585614453865
2050,0.0
2053,0.0
2054,0.0
2055,0.0
2056,15.0
2057,15.0
2282,12.200000000000009
2283,12.200000000000009
2,1, 1,21, 0,10, 0.00,60.00,WinterDesignDay
769,13.880642626127744
2050,0.0
2053,0.0
2054,0.0
2055,0.0
2056,15.0
2057,15.0
2282,12.200000000000009
2283,12.200000000000009
2,1, 1,21, 0,11, 0.00,60.00,WinterDesignDay
769,13.895176458987887
2050,0.0
2053,0.0
2054,0.0
2055,0.0
2056,15.0
2057,15.0
2282,12.200000000000009
2283,12.200000000000009
2,1, 1,21, 0,12, 0.00,60.00,WinterDesignDay
769,13.908043727908597
2050,0.0
2053,0.0
2054,0.0
2055,0.0
2056,15.0
2057,15.0
2282,12.200000000000009
2283,12.200000000000009
2,1, 1,21, 0,13, 0.00,60.00,WinterDesignDay
769,13.919573123712459
2050,0.0
2053,0.0
2054,0.0
2055,0.0
2056,15.0
2057,15.0
2282,12.200000000000009
2283,12.200000000000009
2,1, 1,21, 0,14, 0.00,60.00,WinterDesignDay
769,13.929953965619303
2050,0.0
2053,0.0
2054,0.0
2055,0.0
2056,15.0
2057,15.0
2282,12.200000000000009
2283,12.200000000000009
2,1, 1,21, 0,15, 0.00,60.00,WinterDesignDay
769,13.939335652059146
2050,0.0
2053,0.0
2054,0.0
2055,0.0
2056,15.0
2057,15.0
2282,12.200000000000009
2283,12.200000000000009
2,1, 1,21, 0,16, 0.00,60.00,WinterDesignDay
769,13.947832907970837
2050,0.0
2053,0.0
2054,0.0
2055,0.0
2056,15.0
2057,15.0
2282,12.200000000000009
2283,12.200000000000009
2,1, 1,21, 0,17, 0.00,60.00,WinterDesignDay
769,13.955584527666395
2050,0.0
2053,0.0
2054,0.0
2055,0.0
2056,15.0
2057,15.0
2282,12.200000000000009
2283,12.200000000000009
2,1, 1,21, 0,18, 0.00,60.00,WinterDesignDay
769,13.96262378334549
2050,0.0
2053,0.0
2054,0.0
2055,0.0
2056,15.0
2057,15.0
2282,12.200000000000009
2283,12.200000000000009
2,1, 1,21, 0,19, 0.00,60.00,WinterDesignDay
769,13.566642012161527
2050,0.0
2053,0.0
2054,0.0
2055,0.0
2056,15.0
2057,15.0
2282,12.200000000000009
2283,12.200000000000009
2,1, 1,21, 0,20, 0.00,60.00,WinterDesignDay
769,13.47941796529331
2050,0.0
2053,0.0
2054,0.0
2055,0.0
2056,15.0
2057,15.0
2282,12.200000000000009
2283,12.200000000000009
2,1, 1,21, 0,21, 0.00,60.00,WinterDesignDay
769,13.454997975272054
2050,0.0
2053,0.0
2054,0.0
2055,0.0
2056,15.0
2057,15.0
2282,12.200000000000009
2283,12.200000000000009
2,1, 1,21, 0,22, 0.00,60.00,WinterDesignDay
769,13.437081552188172
2050,0.0
2053,0.0
2054,0.0
2055,0.0
2056,15.0
2057,15.0
2282,12.200000000000009
2283,12.200000000000009
2,1, 1,21, 0,23, 0.00,60.00,WinterDesignDay
769,13.421868193089202
2050,0.0
2053,0.0
2054,0.0
2055,0.0
2056,15.0
2057,15.0
2282,12.200000000000009
2283,12.200000000000009
2,1, 1,21, 0,24, 0.00,60.00,WinterDesignDay
769,13.408388227425523
2050,0.0
2053,0.0
2054,0.0
2055,0.0
2056,15.0
2057,15.0
2282,12.200000000000009
2283,12.200000000000009
1,ATLANTA-HARTSFIELD.JACKSON.INTL.AP_GA_USA ANN CLG .4% CONDNS DB=>MWB,  41.98, -87.92,  -6.00, 201.00
2,1, 7,21, 0, 1, 0.00,60.00,SummerDesignDay
769,22.785430289492987
2050,3380.907213805343
2053,0.3935154918084161
2054,0.1021260152751133
2055,0.2913894765333031
2056,12.948268530580196
2057,15.0
2282,6.8834496140372709
2283,8.98979832828646
2,1, 7,21, 0, 2, 0.00,60.00,SummerDesignDay
769,22.693440912190146
2050,3315.4948607220278
2053,0.3935154918084161
2054,0.103202768145672
2055,0.2903127236627444
2056,12.987941659236608
2057,15.0
2282,7.119586882741275
2283,9.186263089283683
2,1, 7,21, 0, 3, 0.00,60.00,SummerDesignDay
769,22.61777391166676
2050,3261.8968290960058
2053,0.3935154918084161
2054,0.10375293702611498
2055,0.2897625547823015
2056,13.020449990684746
2057,15.0
2282,7.284739011941207
2283,9.31890739582074
2,1, 7,21, 0, 4, 0.00,60.00,SummerDesignDay
769,22.550664117846858
2050,3214.4039991324887
2053,0.3935154918084161
2054,0.10419111338143797
2055,0.2893243784269784
2056,13.049255895876146
2057,15.0
2282,7.425962837837838
2283,9.431325767428648
2,1, 7,21, 0, 5, 0.00,60.00,SummerDesignDay
769,22.493891125248184
2050,3173.9450253530728
2053,0.3935154918084161
2054,0.10454545795374125
2055,0.2889700338546753
2056,13.073795911553884
2057,15.0
2282,7.544027675604871
2283,9.524850973673138
2,1, 7,21, 0, 6, 0.00,60.00,SummerDesignDay
769,22.464048736555598
2050,3152.646454041916
2053,0.3935154918084161
2054,0.10388674542166968
2055,0.2896287463867468
2056,13.086714504788907
2057,15.0
2282,7.545573915632698
2283,9.513478822650557
2,1, 7,21, 0, 7, 0.00,60.00,SummerDesignDay
769,22.83619543261186
2050,3409.4623695073175
2053,0.3935154918084161
2054,0.10902423211749758
2055,0.28449125969091879
2056,12.93095055955185
2057,15.0
2282,7.335703317964298
2283,9.459369732189528
2,1, 7,21, 0, 8, 0.00,60.00,SummerDesignDay
769,23.081721556193775
2050,3585.974477132526
2053,0.3935154918084161
2054,0.10760529872485959
2055,0.28591019308355677
2056,12.823899503686445
2057,15.0
2282,6.840959799294429
2283,9.071675593920606
2,1, 7,21, 0, 9, 0.00,60.00,SummerDesignDay
769,23.476206383845338
2050,3861.3149116104116
2053,0.3935154918084161
2054,0.11367793370929153
2055,0.27983755809912499
2056,12.656926013631932
2057,15.0
2282,6.699999999999995
2283,9.097686671625313
2,1, 7,21, 0,10, 0.00,60.00,SummerDesignDay
769,23.959081688188826
2050,4206.202217795146
2053,0.3935154918084161
2054,0.12359286733530856
2055,0.26992262447310785
2056,12.44779768556766
2057,15.0
2282,6.699999999999993
2283,9.306811727205094
2,1, 7,21, 0,11, 0.00,60.00,SummerDesignDay
769,23.99995722898601
2050,4237.880512715115
2053,0.3935154918084161
2054,0.12450351464532239
2055,0.26901197716309407
2056,12.42859007859302
2057,15.0
2282,6.699999999999993
2283,9.326019033729115
2,1, 7,21, 0,12, 0.00,60.00,SummerDesignDay
769,24.000009626948957
2050,4237.917568478915
2053,0.3935154918084161
2054,0.12450458029047619
2055,0.2690109115179402
2056,12.428567601922366
2057,15.0
2282,6.699999999999993
2283,9.32604151023884
2,1, 7,21, 0,13, 0.00,60.00,SummerDesignDay
769,24.000007660277448
2050,4237.917020741937
2053,0.3935154918084161
2054,0.1245045645332993
2055,0.26901092727511707
2056,12.428567934271593
2057,15.0
2282,6.699999999999993
2283,9.326041177889613
2,1, 7,21, 0,14, 0.00,60.00,SummerDesignDay
769,24.00001073129216
2050,4237.918744002531
2053,0.3935154918084161
2054,0.12450461410768085
2055,0.26901087770073558
2056,12.428566888652354
2057,15.0
2282,6.699999999999993
2283,9.326042223508847
2,1, 7,21, 0,15, 0.00,60.00,SummerDesignDay
769,23.99998404271414
2050,4237.90041587873
2053,0.3935154918084161
2054,0.12450408684824838
2055,0.2690114049601681
2056,12.428578009569782
2057,15.0
2282,6.699999999999993
2283,9.32603110259142
2,1, 7,21, 0,16, 0.00,60.00,SummerDesignDay
769,23.9999403074517
2050,4237.869658144702
2053,0.3935154918084161
2054,0.12450320256688102
2055,0.2690122892415355
2056,12.428596661009161
2057,15.0
2282,6.699999999999993
2283,9.326012451393437
2,1, 7,21, 0,17, 0.00,60.00,SummerDesignDay
769,23.99989788803718
2050,4237.839413386421
2053,0.3935154918084161
2054,0.12450233258944761
2055,0.26901315921896887
2056,12.428615010552218
2057,15.0
2282,6.699999999999993
2283,9.325994101892983
2,1, 7,21, 0,18, 0.00,60.00,SummerDesignDay
769,23.99837141677951
2050,4237.006538645473
2053,0.3935154918084161
2054,0.12447839137370777
2055,0.26903710043470865
2056,12.429119985160725
2057,15.0
2282,6.699999999999993
2283,9.325489135519918
2,1, 7,21, 0,19, 0.00,60.00,SummerDesignDay
769,23.871208072130686
2050,4149.135647259417
2053,0.3935154918084161
2054,0.12195239417802896
2055,0.27156309763038757
2056,12.482398966928545
2057,15.0
2282,6.699999999999993
2283,9.272210987237154
2,1, 7,21, 0,20, 0.00,60.00,SummerDesignDay
769,23.704178622962045
2050,4030.69524454476
2053,0.3935154918084161
2054,0.11854751534040759
2055,0.2749679764680089
2056,12.55421554632263
2057,15.0
2282,6.699999999999993
2283,9.200395531580285
2,1, 7,21, 0,21, 0.00,60.00,SummerDesignDay
769,23.566075790562026
2050,3932.617124582792
2053,0.3935154918084161
2054,0.11572789914174095
2055,0.2777875926666755
2056,12.61368761583648
2057,15.0
2282,6.699999999999993
2283,9.140924392740532
2,1, 7,21, 0,22, 0.00,60.00,SummerDesignDay
769,23.45309508019335
2050,3852.6490820307537
2053,0.3935154918084161
2054,0.11342885065364948
2055,0.280086641154767
2056,12.662179737421252
2057,15.0
2282,6.699999999999993
2283,9.092433030015606
2,1, 7,21, 0,23, 0.00,60.00,SummerDesignDay
769,23.100612169504733
2050,3607.040616988166
2053,0.3935154918084161
2054,0.10636728634003756
2055,0.2871482054683789
2056,12.811124066902784
2057,15.0
2282,6.699999999999993
2283,8.943491031484287
2,1, 7,21, 0,24, 0.00,60.00,SummerDesignDay
769,22.923171078028628
2050,3478.443904894417
2053,0.3935154918084161
2054,0.10270291978461803
2055,0.29081257202379859
2056,12.889113392911972
2057,15.0
2282,6.7027041521533159
2283,8.868207078195472
1,RUNPERIOD 1,  41.98, -87.92,  -6.00, 201.00
2,1, 6, 1, 0, 1, 0.00,60.00,Monday
769,21.910779477641169
2050,4718.271787828637
2053,0.3935154918084161
2054,0.37263059658952477
2055,0.020884895218891709
2056,12.137347220181168
2057,15.0
2282,11.88728818355702
2283,14.80454337025068
2,1, 6, 1, 0, 2, 0.00,60.00,Monday
769,21.739648621074229
2050,4944.8369669662
2053,0.3935154918084161
2054,0.2958728742029858
2055,0.09764261760543072
2056,12.0
2057,15.0
2282,10.93727587832514
2283,13.991878285199967
2,1, 6, 1, 0, 3, 0.00,60.00,Monday
769,21.518589765387995
2050,4944.8369669662
2053,0.3935154918084161
2054,0.29401931540343759
2055,0.09949617640497885
2056,12.0
2057,15.0
2282,10.91171972190162
2283,13.966322128776442
2,1, 6, 1, 0, 4, 0.00,60.00,Monday
769,21.352855902557569
2050,4944.8369669662
2053,0.3935154918084161
2054,0.29228003660498816
2055,0.10123545520342838
2056,12.0
2057,15.0
2282,10.887341839659938
2283,13.94194424653477
2,1, 6, 1, 0, 5, 0.00,60.00,Monday
769,21.129502220055536
2050,4944.8369669662
2053,0.3935154918084161
2054,0.2994072999213833
2055,0.09410819188703305
2056,12.0
2057,15.0
2282,10.984019532610925
2283,14.038621939485754
2,1, 6, 1, 0, 6, 0.00,60.00,Monday
769,20.79515853874229
2050,4944.8369669662
2053,0.3935154918084161
2054,0.34753012283002418
2055,0.04598536897839224
2056,12.0
2057,15.0
2282,11.52415768384047
2283,14.578760090715308
2,1, 6, 1, 0, 7, 0.00,60.00,Monday
769,20.657527235977346
2050,4732.749381627151
2053,0.3935154918084161
2054,0.3935154918084161
2055,0.0
2056,12.128567846157483
2057,15.0
2282,12.07396543928265
2283,15.0
2,1, 6, 1, 0, 8, 0.00,60.00,Monday
769,20.240542085320507
2050,4967.18147003677
2053,0.3935154918084161
2054,0.3935154918084161
2055,0.0
2056,11.986462494976776
2057,15.0
2282,11.931891356480968
2283,15.0
2,1, 6, 1, 0, 9, 0.00,60.00,Monday
769,20.805768466196495
2050,6308.717615896197
2053,0.3935154918084161
2054,0.3935154918084161
2055,0.0
2056,11.173477020400798
2057,15.0
2282,11.118905881904995
2283,15.0
2,1, 6, 1, 0,10, 0.00,60.00,Monday
769,21.221660901977946
2050,7665.583173045176
2053,0.3935154918084161
2054,0.3935154918084161
2055,0.0
2056,10.351543634969195
2057,15.0
2282,10.296972496473389
2283,15.0
2,1, 6, 1, 0,11, 0.00,60.00,Monday
769,21.48954617369217
2050,8236.689709057546
2053,0.3935154918084161
2054,0.3788918727913326
2055,0.014623619017083867
2056,10.005708193296894
2057,15.0
2282,9.75183933933934
2283,14.80070228453825
2,1, 6, 1, 0,12, 0.00,60.00,Monday
769,21.9817603958129
2050,0.0
2053,0.0
2054,0.0
2055,0.0
2056,15.0
2057,15.0
2282,9.206794294294293
2283,9.206794294294293
2,1, 6, 1, 0,13, 0.00,60.00,Monday
769,22.46208762013272
2050,0.0
2053,0.0
2054,0.0
2055,0.0
2056,15.0
2057,15.0
2282,8.661749249249248
2283,8.661749249249248
2,1, 6, 1, 0,14, 0.00,60.00,Monday
769,23.20558945167661
2050,0.0
2053,0.0
2054,0.0
2055,0.0
2056,15.0
2057,15.0
2282,8.384772796773677
2283,8.384772796773677
2,1, 6, 1, 0,15, 0.00,60.00,Monday
769,23.455757269878104
2050,0.0
2053,0.0
2054,0.0
2055,0.0
2056,15.0
2057,15.0
2282,8.238465452374057
2283,8.238465452374057
2,1, 6, 1, 0,16, 0.00,60.00,Monday
769,23.247380569383716
2050,0.0
2053,0.0
2054,0.0
2055,0.0
2056,15.0
2057,15.0
2282,7.819366855957359
2283,7.819366855957359
2,1, 6, 1, 0,17, 0.00,60.00,Monday
769,23.07228091553768
2050,0.0
2053,0.0
2054,0.0
2055,0.0
2056,15.0
2057,15.0
2282,7.810499047000829
2283,7.810499047000829
2,1, 6, 1, 0,18, 0.00,60.00,Monday
769,22.481270076853148
2050,0.0
2053,0.0
2054,0.0
2055,0.0
2056,15.0
2057,15.0
2282,8.355367867867868
2283,8.355367867867868
2,1, 6, 1, 0,19, 0.00,60.00,Monday
769,22.06641269363961
2050,0.0
2053,0.0
2054,0.0
2055,0.0
2056,15.0
2057,15.0
2282,9.168481505482396
2283,9.168481505482396
2,1, 6, 1, 0,20, 0.00,60.00,Monday
769,21.828493314172154
2050,0.0
2053,0.0
2054,0.0
2055,0.0
2056,15.0
2057,15.0
2282,10.550921948104739
2283,10.550921948104739
2,1, 6, 1, 0,21, 0.00,60.00,Monday
769,21.604154718114477
2050,0.0
2053,0.0
2054,0.0
2055,0.0
2056,15.0
2057,15.0
2282,12.000858603418294
2283,12.000878300367642
2,1, 6, 1, 0,22, 0.00,60.00,Monday
769,22.13391585120651
2050,0.0
2053,0.0
2054,0.0
2055,0.0
2056,15.0
2057,15.0
2282,12.199971169767962
2283,12.199971169767962
2,1, 6, 1, 0,23, 0.00,60.00,Monday
769,22.094052014116767
2050,0.0
2053,0.0
2054,0.0
2055,0.0
2056,15.0
2057,15.0
2282,12.20000000000001
2283,12.20000000000001
2,1, 6, 1, 0,24, 0.00,60.00,Monday
769,22.0772385015581
2050,0.0
2053,0.0
2054,0.0
2055,0.0
2056,15.0
2057,15.0
2282,12.20000000000001
2283,12.20000000000001
2,2, 6, 2, 0, 1, 0.00,60.00,Tuesday
769,21.84636221409893
2050,2719.3332926799705
2053,0.3935154918084161
2054,0.23963167192461364
2055,0.15388381988380279
2056,13.349560586487046
2057,15.0
2282,12.20000000000001
2283,13.905062939975898
2,2, 6, 2, 0, 2, 0.00,60.00,Tuesday
769,21.583923805154549
2050,2533.827117467001
2053,0.3935154918084161
2054,0.22381550090184366
2055,0.16969999090657285
2056,13.462099922576709
2057,15.0
2282,12.20000000000001
2283,13.792525365761872
2,2, 6, 2, 0, 3, 0.00,60.00,Tuesday
769,21.317580328247816
2050,2345.5790944235948
2053,0.3935154918084161
2054,0.2077645266632081
2055,0.18575096514520834
2056,13.57630999170257
2057,15.0
2282,12.200000000000009
2283,13.678317084757115
2,2, 6, 2, 0, 4, 0.00,60.00,Tuesday
769,21.092827691302547
2050,2185.9128389957716
2053,0.3935154918084161
2054,0.19414977448530636
2055,0.19936571732311005
2056,13.673185219700763
2057,15.0
2282,12.20000000000001
2283,13.581443373577575
2,2, 6, 2, 0, 5, 0.00,60.00,Tuesday
769,20.94623484534485
2050,2081.1855055261837
2053,0.3935154918084161
2054,0.18521925833260043
2055,0.20829623347581609
2056,13.736729952538373
2057,15.0
2282,12.20000000000001
2283,13.517899635788087
2,2, 6, 2, 0, 6, 0.00,60.00,Tuesday
769,21.030052557409545
2050,2136.6805124935146
2053,0.3935154918084161
2054,0.18995155506998258
2055,0.20356393673843382
2056,13.703057483168648
2057,15.0
2282,12.20000000000001
2283,13.551571577911066
2,2, 6, 2, 0, 7, 0.00,60.00,Tuesday
769,21.44400686828304
2050,2426.2096317641846
2053,0.3935154918084161
2054,0.19566569834207182
2055,0.19784979346634469
2056,13.527391045685864
2057,15.0
2282,11.90127544043137
2283,13.428510705282628
2,2, 6, 2, 0, 8, 0.00,60.00,Tuesday
769,21.078403750316089
2050,2179.661673106161
2053,0.3935154918084161
2054,0.12333546749654442
2055,0.2701800243118721
2056,13.676979053398624
2057,15.0
2282,10.574085122177405
2283,11.951734721505407
2,2, 6, 2, 0, 9, 0.00,60.00,Tuesday
769,21.95559314844055
2050,2778.576887732404
2053,0.3935154918084161
2054,0.12683776676924272
2055,0.26667772503917377
2056,13.313626189095505
2057,15.0
2282,9.605708219117714
2283,11.346704993984595
2,2, 6, 2, 0,10, 0.00,60.00,Tuesday
769,22.621181755711186
2050,3257.0828695006819
2053,0.3935154918084161
2054,0.13121504676339758
2055,0.2623004450450189
2056,13.023371130360172
2057,15.0
2282,8.90954505813645
2283,10.940792348134009
2,2, 6, 2, 0,11, 0.00,60.00,Tuesday
769,23.164823136662514
2050,3641.795409719416
2053,0.3935154918084161
2054,0.1319050373464757
2055,0.26161045446194078
2056,12.79004763007539
2057,15.0
2282,8.242602591693095
2283,10.507169730126217
2,2, 6, 2, 0,12, 0.00,60.00,Tuesday
769,23.528451466826725
2050,3901.699246835527
2053,0.3935154918084161
2054,0.13311907697660473
2055,0.2603964148318117
2056,12.632436053607896
2057,15.0
2282,7.839767802678191
2283,10.261944051021148
2,2, 6, 2, 0,13, 0.00,60.00,Tuesday
769,23.508807284935366
2050,3893.0504383137515
2053,0.3935154918084161
2054,0.13019539588468583
2055,0.2633200959237306
2056,12.637680451590223
2057,15.0
2282,7.693420407329013
2283,10.110352339738363
2,2, 6, 2, 0,14, 0.00,60.00,Tuesday
769,23.469899567621629
2050,3865.0101102614869
2053,0.3935154918084161
2054,0.12663695570714923
2055,0.2668785361012673
2056,12.654684272253985
2057,15.0
2282,7.542390403481804
2283,9.942318781344178
2,2, 6, 2, 0,15, 0.00,60.00,Tuesday
769,23.101227683082965
2050,3606.374493696446
2053,0.3935154918084161
2054,0.118360154930659
2055,0.27515533687775736
2056,12.811528023805938
2057,15.0
2282,7.542342342342349
2283,9.785429423167905
2,2, 6, 2, 0,16, 0.00,60.00,Tuesday
769,22.89965106959418
2050,3462.2818883739089
2053,0.3935154918084161
2054,0.1137490877640379
2055,0.27976640404437849
2056,12.898915431138024
2057,15.0
2282,7.542342342342349
2283,9.698043383530442
2,2, 6, 2, 0,17, 0.00,60.00,Tuesday
769,22.715877517848708
2050,3332.449466806184
2053,0.3935154918084161
2054,0.11178739390309829
2055,0.2817280979053181
2056,12.977658568850517
2057,15.0
2282,7.6885615746529709
2283,9.765520710615819
2,2, 6, 2, 0,18, 0.00,60.00,Tuesday
769,22.089712652975384
2050,2896.7015982849054
2053,0.3935154918084161
2054,0.10131350684504842
2055,0.29220198496336799
2056,13.241966378103147
2057,15.0
2282,7.961440938759037
2283,9.774096402700087
2,2, 6, 2, 0,19, 0.00,60.00,Tuesday
769,21.607683464917615
2050,2552.725842440353
2053,0.3935154918084161
2054,0.09907958948613602
2055,0.29443590232228036
2056,13.450634873454583
2057,15.0
2282,8.623484521576808
2283,10.22747475690696
2,2, 6, 2, 0,20, 0.00,60.00,Tuesday
769,21.31692979534764
2050,2344.8059371638667
2053,0.3935154918084161
2054,0.11080987971468143
2055,0.28270561209373509
2056,13.576779032488702
2057,15.0
2282,9.73780831049021
2283,11.215656361805467
2,2, 6, 2, 0,21, 0.00,60.00,Tuesday
769,21.09276423634109
2050,2186.1407180316534
2053,0.3935154918084161
2054,0.13168403231094109
2055,0.26183145949747546
2056,13.673046985262698
2057,15.0
2282,10.853070067888167
2283,12.23465167381894
2,2, 6, 2, 0,22, 0.00,60.00,Tuesday
769,21.618556839308636
2050,2546.4918970189485
2053,0.3935154918084161
2054,0.16310645821250026
2055,0.2304090335959162
2056,13.45441776833083
2057,15.0
2282,11.138962390459718
2283,12.739169790183272
2,2, 6, 2, 0,23, 0.00,60.00,Tuesday
769,21.560638265203587
2050,2517.6958727243224
2053,0.3935154918084161
2054,0.1739394809638016
2055,0.21957601084461485
2056,13.471886462068202
2057,15.0
2282,11.39838745939013
2283,12.981126438882616
2,2, 6, 2, 0,24, 0.00,60.00,Tuesday
769,21.359002467460113
2050,2373.159939774133
2053,0.3935154918084161
2054,0.18436549656777236
2055,0.2091499952406442
2056,13.559575967938619
2057,15.0
2282,11.805856795763618
2283,13.300907642310098
End of Data
 Number of Records Written=         864
