Program Version,EnergyPlus, Version 9.4.0-998c4b761e, YMD=2021.07.08 14:44
1,5,Environment Title[],Latitude[deg],Longitude[deg],Time Zone[],Elevation[m]
2,8,Day of Simulation[],Month[],Day of Month[],DST Indicator[1=yes 0=no],Hour[],StartMinute[],EndMinute[],DayType
3,5,Cumulative Day of Simulation[],Month[],Day of Month[],DST Indicator[1=yes 0=no],DayType  ! When Daily Report Variables Requested
4,2,Cumulative Days of Simulation[],Month[]  ! When Monthly Report Variables Requested
5,1,Cumulative Days of Simulation[] ! When Run Period Report Variables Requested
6,1,Calendar Year of Simulation[] ! When Annual Report Variables Requested
769,1,PERIMETER_TOP_ZN_1,Zone Mean Air Temperature [C] !Hourly
2050,1,PERI1_TOP_LOTEMP,Zone Radiant HVAC Cooling Rate [W] !Hourly
2053,1,PERI1_TOP_LOTEMP,Zone Radiant HVAC Mass Flow Rate [kg/s] !Hourly
2054,1,PERI1_TOP_LOTEMP,Zone Radiant HVAC Injection Mass Flow Rate [kg/s] !Hourly
2055,1,PERI1_TOP_LOTEMP,Zone Radiant HVAC Recirculation Mass Flow Rate [kg/s] !Hourly
2056,1,PERI1_TOP_LOTEMP,Zone Radiant HVAC Inlet Temperature [C] !Hourly
2057,1,PERI1_TOP_LOTEMP,Zone Radiant HVAC Outlet Temperature [C] !Hourly
2063,1,PERI2_TOP_LOTEMP,Zone Radiant HVAC Outlet Temperature [C] !Hourly
2285,1,PERI1_TOP_LOTEMP_CHW_INLET,System Node Temperature [C] !Hourly
2286,1,PERI1_TOP_LOTEMP_CHW_OUTLET,System Node Temperature [C] !Hourly
End of Data Dictionary
1,ATLANTA-HARTSFIELD.JACKSON.INTL.AP_GA_USA ANN HTG 99.6% CONDNS DB,  41.98, -87.92,  -6.00, 201.00
2,1, 1,21, 0, 1, 0.00,60.00,WinterDesignDay
769,13.748311357126545
2050,0.0
2053,0.40425271669553805
2054,0.0023193819877637834
2055,0.40193333470777406
2056,15.0
2057,14.561007672686373
2063,38.059742265966608
2285,12.20000000000001
2286,12.20000000000001
2,1, 1,21, 0, 2, 0.00,60.00,WinterDesignDay
769,13.738537095741388
2050,0.0
2053,0.40425271669553805
2054,0.0023292534362168739
2055,0.40192346325932096
2056,15.0
2057,14.559356190033619
2063,38.069115327596829
2285,12.20000000000001
2286,12.20000000000001
2,1, 1,21, 0, 3, 0.00,60.00,WinterDesignDay
769,13.729670555635308
2050,0.0
2053,0.40425271669553805
2054,0.002338223204538541
2055,0.4019144934909992
2056,15.0
2057,14.557855487077469
2063,38.0779121053064
2285,12.20000000000001
2286,12.20000000000001
2,1, 1,21, 0, 4, 0.00,60.00,WinterDesignDay
769,13.721613876541144
2050,0.0
2053,0.40425271669553805
2054,0.0023463878388535065
2055,0.40190632885668439
2056,15.0
2057,14.556489430203607
2063,38.08618192619885
2285,12.20000000000001
2286,12.20000000000001
2,1, 1,21, 0, 5, 0.00,60.00,WinterDesignDay
769,13.714288261789714
2050,0.0
2053,0.40425271669553805
2054,0.002353826712244564
2055,0.40189888998329345
2056,15.0
2057,14.555244754868126
2063,38.093947201322567
2285,12.20000000000001
2286,12.20000000000001
2,1, 1,21, 0, 6, 0.00,60.00,WinterDesignDay
769,13.707619654536453
2050,0.0
2053,0.40425271669553805
2054,0.002360610268516516
2055,0.4018921064270214
2056,15.0
2057,14.55410968726058
2063,38.101253479313829
2285,12.20000000000001
2286,12.20000000000001
2,1, 1,21, 0, 7, 0.00,60.00,WinterDesignDay
769,14.116531526107256
2050,0.0
2053,0.40425271669553805
2054,0.0022613596890305499
2055,0.40199135700650748
2056,15.0
2057,14.570711726389117
2063,35.803227196356399
2285,12.20000000000001
2286,12.20000000000001
2,1, 1,21, 0, 8, 0.00,60.00,WinterDesignDay
769,14.214037885391276
2050,0.0
2053,0.40425271669553805
2054,0.0021667692850418946
2055,0.402085947410496
2056,15.0
2057,14.586529259793819
2063,35.69147498488662
2285,12.20000000000001
2286,12.20000000000001
2,1, 1,21, 0, 9, 0.00,60.00,WinterDesignDay
769,14.238602906781985
2050,0.0
2053,0.40425271669553805
2054,0.0021399729576713699
2055,0.40211274373786656
2056,15.0
2057,14.591008483394683
2063,35.68246004984994
2285,12.20000000000001
2286,12.20000000000001
2,1, 1,21, 0,10, 0.00,60.00,WinterDesignDay
769,14.254803556326197
2050,0.0
2053,0.40425271669553805
2054,0.0021234858081700307
2055,0.40212923088736798
2056,15.0
2057,14.593764131594366
2063,35.6726733672094
2285,12.20000000000001
2286,12.20000000000001
2,1, 1,21, 0,11, 0.00,60.00,WinterDesignDay
769,14.267813067879029
2050,0.0
2053,0.40425271669553805
2054,0.002110572226959712
2055,0.4021421444685781
2056,15.0
2057,14.59592233601698
2063,35.66371790944247
2285,12.20000000000001
2286,12.20000000000001
2,1, 1,21, 0,12, 0.00,60.00,WinterDesignDay
769,14.279112775746727
2050,0.0
2053,0.40425271669553805
2054,0.002099448594720689
2055,0.4021532681008174
2056,15.0
2057,14.597781280314047
2063,35.655537818756737
2285,12.20000000000001
2286,12.20000000000001
2,1, 1,21, 0,13, 0.00,60.00,WinterDesignDay
769,14.289191867125279
2050,0.0
2053,0.40425271669553805
2054,0.00208954543365226
2055,0.4021631712618856
2056,15.0
2057,14.599436176787276
2063,35.648023340742579
2285,12.20000000000001
2286,12.20000000000001
2,1, 1,21, 0,14, 0.00,60.00,WinterDesignDay
769,14.298259573150038
2050,0.0
2053,0.40425271669553805
2054,0.0020806343393914947
2055,0.40217208235614668
2056,15.0
2057,14.600925221296228
2063,35.64109589201777
2285,12.20000000000001
2286,12.20000000000001
2,1, 1,21, 0,15, 0.00,60.00,WinterDesignDay
769,14.306439156866011
2050,0.0
2053,0.40425271669553805
2054,0.0020725887404132818
2055,0.4021801279551245
2056,15.0
2057,14.602269584738668
2063,35.634705859353378
2285,12.20000000000001
2286,12.20000000000001
2,1, 1,21, 0,16, 0.00,60.00,WinterDesignDay
769,14.313823067177191
2050,0.0
2053,0.40425271669553805
2054,0.0020653174682583629
2055,0.40218739922727955
2056,15.0
2057,14.603484517259906
2063,35.62881593083552
2285,12.20000000000001
2286,12.20000000000001
2,1, 1,21, 0,17, 0.00,60.00,WinterDesignDay
769,14.32049125208463
2050,0.0
2053,0.40425271669553805
2054,0.0020587433584656345
2055,0.4021939733370722
2056,15.0
2057,14.604582925409567
2063,35.623388162323177
2285,12.20000000000001
2286,12.20000000000001
2,1, 1,21, 0,18, 0.00,60.00,WinterDesignDay
769,14.326513126136744
2050,0.0
2053,0.40425271669553805
2054,0.0020527990013529285
2055,0.40219991769418497
2056,15.0
2057,14.605576082978756
2063,35.61839287189404
2285,12.20000000000001
2286,12.20000000000001
2,1, 1,21, 0,19, 0.00,60.00,WinterDesignDay
769,13.912237916210679
2050,0.0
2053,0.40425271669553805
2054,0.0021519811947303907
2055,0.40210073550080768
2056,15.0
2057,14.588999924108828
2063,37.920512446416058
2285,12.20000000000001
2286,12.20000000000001
2,1, 1,21, 0,20, 0.00,60.00,WinterDesignDay
769,13.817245649080617
2050,0.0
2053,0.40425271669553805
2054,0.002247443845131062
2055,0.4020052728504067
2056,15.0
2057,14.573040353140878
2063,38.034715952096778
2285,12.20000000000001
2286,12.20000000000001
2,1, 1,21, 0,21, 0.00,60.00,WinterDesignDay
769,13.792232411438653
2050,0.0
2053,0.40425271669553805
2054,0.0022752911651104719
2055,0.4019774255304274
2056,15.0
2057,14.568383021508954
2063,38.045528624909838
2285,12.20000000000001
2286,12.20000000000001
2,1, 1,21, 0,22, 0.00,60.00,WinterDesignDay
769,13.775489012734756
2050,0.0
2053,0.40425271669553805
2054,0.0022927086984332837
2055,0.4019600079971047
2056,15.0
2057,14.565469677068661
2063,38.05726146386143
2285,12.20000000000001
2286,12.20000000000001
2,1, 1,21, 0,23, 0.00,60.00,WinterDesignDay
769,13.761919663222335
2050,0.0
2053,0.40425271669553805
2054,0.0023064902054388744
2055,0.401946226490099
2056,15.0
2057,14.563164330767416
2063,38.06819034956042
2285,12.20000000000001
2286,12.20000000000001
2,1, 1,21, 0,24, 0.00,60.00,WinterDesignDay
769,13.750067844863385
2050,0.0
2053,0.40425271669553805
2054,0.002318439793490888
2055,0.4019342769020469
2056,15.0
2057,14.561165295913007
2063,38.078329985206149
2285,12.20000000000001
2286,12.20000000000001
1,ATLANTA-HARTSFIELD.JACKSON.INTL.AP_GA_USA ANN CLG .4% CONDNS DB=>MWB,  41.98, -87.92,  -6.00, 201.00
2,1, 7,21, 0, 1, 0.00,60.00,SummerDesignDay
769,22.843438007771696
2050,3136.3695537449768
2053,0.4111182698519473
2054,0.09800696575265705
2055,0.31311130409929058
2056,12.923390563376954
2057,14.745214727193764
2063,16.16949630307708
2285,6.88344961403727
2286,8.757552113091956
2,1, 7,21, 0, 2, 0.00,60.00,SummerDesignDay
769,22.749959748553253
2050,3074.229571794563
2053,0.4111182698519473
2054,0.09903925372045808
2055,0.3120790161314896
2056,12.96371572936119
2057,14.749465271961036
2063,15.94767615293106
2285,7.119586882741276
2286,8.957615364671153
2,1, 7,21, 0, 3, 0.00,60.00,SummerDesignDay
769,22.674677326858118
2050,3023.7683800273036
2053,0.4111182698519473
2054,0.09957539343643718
2055,0.31154287641551056
2056,12.996071474886098
2057,14.75252556094529
2063,15.956868297434765
2285,7.284739011941207
2286,9.093472522073644
2,1, 7,21, 0, 4, 0.00,60.00,SummerDesignDay
769,22.60945032749752
2050,2981.5786387535674
2053,0.4111182698519473
2054,0.10007273311011869
2055,0.31104553674182908
2056,13.024078471898753
2057,14.756039181436608
2063,15.8779413302112
2285,7.4259628378378379
2286,9.210203391056185
2,1, 7,21, 0, 5, 0.00,60.00,SummerDesignDay
769,22.55577991954757
2050,2946.9864536806696
2053,0.4111182698519473
2054,0.10052198034852801
2055,0.3105962895034198
2056,13.047303272921706
2057,14.759181228547487
2063,16.06008532767424
2285,7.544027675604874
2286,9.308185822862491
2,1, 7,21, 0, 6, 0.00,60.00,SummerDesignDay
769,22.526868809379715
2050,2923.4826993341646
2053,0.4111182698519473
2054,0.09978342070429804
2055,0.31133484914764966
2056,13.05978861685564
2057,14.75801953273921
2063,15.533426482818415
2285,7.545573915632698
2286,9.296085210278042
2,1, 7,21, 0, 7, 0.00,60.00,SummerDesignDay
769,22.915450453957545
2050,3070.7921332191447
2053,0.4111182698519473
2054,0.10275863550516433
2055,0.30835963434678345
2056,12.897169242651975
2057,14.680887631373235
2063,12.924730303647002
2285,7.335703317964299
2286,9.171699649050398
2,1, 7,21, 0, 8, 0.00,60.00,SummerDesignDay
769,23.18641312380461
2050,3228.9869976203056
2053,0.4111182698519473
2054,0.10144288581018554
2055,0.30967538404176217
2056,12.77926183551411
2057,14.654807036121092
2063,14.492217332236209
2285,6.840959799294429
2286,8.768781175976925
2,1, 7,21, 0, 9, 0.00,60.00,SummerDesignDay
769,23.62344388703847
2050,3497.6034155153186
2053,0.4111182698519473
2054,0.10809211061593097
2055,0.3030261592360169
2056,12.59420325083289
2057,14.625664564650327
2063,14.845944967485416
2285,6.699999999999995
2286,8.78373471787059
2,1, 7,21, 0,10, 0.00,60.00,SummerDesignDay
769,23.997853015739467
2050,3843.6880599237476
2053,0.4111182698519473
2054,0.11795304421413547
2055,0.2931652256378124
2056,12.42993100893812
2057,14.66229988660668
2063,14.915290214788654
2285,6.699999999999993
2286,8.98463982124207
2,1, 7,21, 0,11, 0.00,60.00,SummerDesignDay
769,24.000052987997113
2050,4130.745567798715
2053,0.4111182698519473
2054,0.12398701788019742
2055,0.2871312519717504
2056,12.428549061523397
2057,14.827636656041764
2063,14.887741018901215
2285,6.699999999999993
2286,9.151358517518494
2,1, 7,21, 0,12, 0.00,60.00,SummerDesignDay
769,24.000102310583185
2050,4377.589134562209
2053,0.4111182698519473
2054,0.12896845728969523
2055,0.2821498125622526
2056,12.428527826577187
2057,14.970979196882379
2063,14.786193666890276
2285,6.699999999999993
2286,9.29472229302245
2,1, 7,21, 0,13, 0.00,60.00,SummerDesignDay
769,24.000091217997907
2050,4540.09253722986
2053,0.4111182698519473
2054,0.13215526868850856
2055,0.27896300116343927
2056,12.428532053904123
2057,15.065363463579672
2063,14.666579157626492
2285,6.699999999999993
2286,9.389102332551952
2,1, 7,21, 0,14, 0.00,60.00,SummerDesignDay
769,24.0000844666078
2050,4602.464965003446
2053,0.4111182698519473
2054,0.13335944879011675
2055,0.27775882106183105
2056,12.42853522347875
2057,15.10159179866518
2063,14.597504304131352
2285,6.699999999999993
2286,9.425327498180105
2,1, 7,21, 0,15, 0.00,60.00,SummerDesignDay
769,24.00005012685731
2050,4564.101411543776
2053,0.4111182698519473
2054,0.13261982778225848
2055,0.2784984420696892
2056,12.428549646781
2057,15.079325129528467
2063,14.564832236357415
2285,6.699999999999993
2286,9.403046405747596
2,1, 7,21, 0,16, 0.00,60.00,SummerDesignDay
769,24.000001316284338
2050,4437.0716721128569
2053,0.4111182698519473
2054,0.13014339411269866
2055,0.28097487573924909
2056,12.428570407769229
2057,15.005568544025766
2063,14.541959176303222
2285,6.699999999999993
2286,9.329269059379268
2,1, 7,21, 0,17, 0.00,60.00,SummerDesignDay
769,23.99995531964544
2050,4250.546753798966
2053,0.4111182698519473
2054,0.12642820679774656
2055,0.2846900630542012
2056,12.428590514899647
2057,14.897257225425124
2063,14.513909681359321
2285,6.699999999999993
2286,9.22093763396716
2,1, 7,21, 0,18, 0.00,60.00,SummerDesignDay
769,23.999948326718259
2050,4070.8287772958017
2053,0.4111182698519473
2054,0.12275807836909393
2055,0.2883601914828538
2056,12.428593538196667
2057,14.79288220072459
2063,14.476188709927199
2285,6.699999999999993
2286,9.116559586034706
2,1, 7,21, 0,19, 0.00,60.00,SummerDesignDay
769,23.920537608209423
2050,3906.594089735312
2053,0.4111182698519473
2054,0.11883212160488041
2055,0.29228614824706719
2056,12.46152929901992
2057,14.73045366925662
2063,14.598135906348534
2285,6.699999999999993
2286,9.021195787077963
2,1, 7,21, 0,20, 0.00,60.00,SummerDesignDay
769,23.76520279869123
2050,3748.503783721835
2053,0.4111182698519473
2054,0.11449325343141638
2055,0.2966250164205313
2056,12.528086413308943
2057,14.705234478217255
2063,14.848700339924124
2285,6.699999999999993
2286,8.929420478643971
2,1, 7,21, 0,21, 0.00,60.00,SummerDesignDay
769,23.629928195959719
2050,3603.0706674422638
2053,0.4111182698519473
2054,0.11051899150430797
2055,0.3005992783476397
2056,12.586343921903929
2057,14.679058775825802
2063,15.041825556392564
2285,6.699999999999993
2286,8.844988140207107
2,1, 7,21, 0,22, 0.00,60.00,SummerDesignDay
769,23.52029294225374
2050,3493.706871610492
2053,0.4111182698519473
2054,0.107469349257384
2055,0.30364892059456385
2056,12.633406381503387
2057,14.662628569486037
2063,15.195626140651815
2285,6.699999999999993
2286,8.781496179223972
2,1, 7,21, 0,23, 0.00,60.00,SummerDesignDay
769,23.16387905933406
2050,3323.0841455235188
2053,0.4111182698519473
2054,0.10170238292801268
2055,0.309415886923935
2056,12.783963074921802
2057,14.714166856209984
2063,15.7587197995574
2285,6.699999999999993
2286,8.682480027803177
2,1, 7,21, 0,24, 0.00,60.00,SummerDesignDay
769,22.98439908009083
2050,3220.990802431277
2053,0.4111182698519473
2054,0.09845125482550944
2055,0.31266701502643826
2056,12.862855459762902
2057,14.73380112063502
2063,16.049003763251389
2285,6.7027041521533159
2286,8.625927241344148
1,RUNPERIOD 1,  41.98, -87.92,  -6.00, 201.00
2,1, 6, 1, 0, 1, 0.00,60.00,Monday
769,20.895507573203298
2050,2464.4124368251766
2053,0.4111182698519473
2054,0.4033567470272769
2055,0.007761522824670561
2056,11.974830468884589
2057,13.405935944286448
2063,14.986111286790307
2285,11.887288183557022
2286,13.370649829207517
2,1, 6, 1, 0, 2, 0.00,60.00,Monday
769,21.250751541030874
2050,493.2449702395766
2053,0.2603749042395667
2054,0.02002174064078834
2055,0.2403531635987785
2056,16.995893619999977
2057,17.282685040090546
2063,14.986111286790307
2285,10.949216871101653
2286,11.269150263095572
2,1, 6, 1, 0, 3, 0.00,60.00,Monday
769,21.44597920494771
2050,1674.6766839068399
2053,0.4111182698519473
2054,0.07448443803669708
2055,0.3366338318152506
2056,15.583619920000018
2057,16.557077856490066
2063,14.986111286790307
2285,10.91171972190162
2286,11.937492959085855
2,1, 6, 1, 0, 4, 0.00,60.00,Monday
769,21.41541805086135
2050,1381.8551927327233
2053,0.4111182698519473
2054,0.060073678003991378
2055,0.3510445918479563
2056,15.937444059999987
2057,16.74074472859031
2063,14.986111286790307
2285,10.887341839659939
2286,11.742961347845988
2,1, 6, 1, 0, 5, 0.00,60.00,Monday
769,21.262457595938416
2050,2485.725528484748
2053,0.4111182698519473
2054,0.16065177557235217
2055,0.25046649427959558
2056,13.339223850000018
2057,14.783280285330175
2063,14.986111286790307
2285,10.984019532610925
2286,12.48036053342929
2,1, 6, 1, 0, 6, 0.00,60.00,Monday
769,21.218247824394316
2050,1338.0897022913806
2053,0.4042662986877482
2054,0.07375467574097247
2055,0.3305116229467762
2056,15.366827400000009
2057,16.144601440589825
2063,14.986111286790307
2285,11.523883648906944
2286,12.353098936278908
2,1, 6, 1, 0, 7, 0.00,60.00,Monday
769,21.344859638263168
2050,2592.3118100755884
2053,0.4111182698519473
2054,0.2638646631222385
2055,0.14725360672970926
2056,12.988124119999988
2057,14.493949221396305
2063,15.478677884319329
2285,12.073965439282649
2286,13.632069845428838
2,1, 6, 1, 0, 8, 0.00,60.00,Monday
769,21.06854762469162
2050,1209.1629200749908
2053,0.3837103851951509
2054,0.06562000823857647
2055,0.3180903769565747
2056,15.804938890000012
2057,16.507832204025158
2063,15.662026488321216
2285,11.933245166696797
2286,12.684968160658253
2,1, 6, 1, 0, 9, 0.00,60.00,Monday
769,21.910311113200007
2050,2535.440703827815
2053,0.4111182698519473
2054,0.14618747054186102
2055,0.2649307993100866
2056,13.95317467999999
2057,15.426371858567564
2063,14.557671209262479
2285,11.118905881904994
2286,12.644396827733964
2,1, 6, 1, 0,10, 0.00,60.00,Monday
769,22.63880414038522
2050,2771.169788887361
2053,0.4111182698519473
2054,0.13672158475082039
2055,0.27439668510112738
2056,13.68839658000001
2057,15.298440018732857
2063,14.576742362242524
2285,10.296972496473389
2286,11.95930573356758
2,1, 6, 1, 0,11, 0.00,60.00,Monday
769,23.209728128182815
2050,3641.7269328875947
2053,0.4111182698519473
2054,0.18833980328412137
2055,0.22277846656782636
2056,12.370356239999988
2057,14.485392384652468
2063,14.652343904598956
2285,9.75183933933934
2286,11.919145535131467
2,1, 6, 1, 0,12, 0.00,60.00,Monday
769,23.669056336732095
2050,3237.2199771037019
2053,0.4111182698519473
2054,0.12506942230002486
2055,0.2860488475519228
2056,13.66674992000002
2057,15.547555813511402
2063,15.585416315460233
2285,9.206794294294293
2286,11.139889661988253
2,1, 6, 1, 0,13, 0.00,60.00,Monday
769,23.635439314775519
2050,2785.504786086074
2053,0.4111182698519473
2054,0.08138363082335945
2055,0.3297346390285884
2056,15.458746990000007
2057,17.077869672628279
2063,16.047279728064244
2285,8.661749249249248
2286,10.33318598359427
2,1, 6, 1, 0,14, 0.00,60.00,Monday
769,23.7567426982517
2050,4317.52668280554
2053,0.4111182698519473
2054,0.16130871714897133
2055,0.2498095527029764
2056,12.378102900000009
2057,14.885634481503683
2063,16.12782523934721
2285,8.384772796773677
2286,10.944574545647523
2,1, 6, 1, 0,15, 0.00,60.00,Monday
769,23.761440113618318
2050,2110.7399988794097
2053,0.39056235635935
2054,0.052401778767412299
2055,0.33816057759193809
2056,16.869172440000026
2057,18.096407366531083
2063,15.991653022107219
2285,8.238960947869553
2286,9.515907627754486
2,1, 6, 1, 0,16, 0.00,60.00,Monday
769,23.18877228246652
2050,5082.2343449827599
2053,0.4111182698519473
2054,0.21346501664528098
2055,0.19765325320666678
2056,10.586282989999983
2057,13.536426626443733
2063,16.096996879955389
2285,7.81936685595736
2286,10.821753838389667
2,1, 6, 1, 0,17, 0.00,60.00,Monday
769,22.905131551395109
2050,2119.8677089265408
2053,0.39056235635935
2054,0.05902310895942035
2055,0.3315392473999299
2056,15.403518380000012
2057,16.635715022292254
2063,16.111306988045916
2285,7.80985497485943
2286,9.091749441441543
2,1, 6, 1, 0,18, 0.00,60.00,Monday
769,22.165633032308766
2050,4002.334129386427
2053,0.4111182698519473
2054,0.17421631130200306
2055,0.23690195854994454
2056,11.595374490000007
2057,13.919327477482796
2063,14.999645035435803
2285,8.355367867867868
2286,10.731579303074396
2,1, 6, 1, 0,19, 0.00,60.00,Monday
769,21.7380484868813
2050,1341.4745118734248
2053,0.3631544717025535
2054,0.0420893835039632
2055,0.32106508819859055
2056,16.41606199
2057,17.195959910685933
2063,14.999645035435803
2285,9.159386242380898
2286,9.98550336749132
2,1, 6, 1, 0,20, 0.00,60.00,Monday
769,21.39220171795285
2050,3308.8393823900985
2053,0.4111182698519473
2054,0.21141809993631167
2055,0.19970016991563614
2056,12.492039989999995
2057,14.413809265570573
2063,14.999645035435803
2285,10.550921948104739
2286,12.524963097529885
2,1, 6, 1, 0,21, 0.00,60.00,Monday
769,21.140305718849406
2050,1074.190845444503
2053,0.3631544717025535
2054,0.05542356865497342
2055,0.3077309030475804
2056,16.333442630000016
2057,16.957939007057925
2063,14.999645035435803
2285,11.986285943059367
2286,12.657000794410429
2,1, 6, 1, 0,22, 0.00,60.00,Monday
769,21.40149256693716
2050,3072.351390011376
2053,0.4111182698519473
2054,0.4111182698519473
2055,0.0
2056,12.252256738766884
2057,14.036551527695627
2063,14.999645035435803
2285,12.20000000000001
2286,14.036551527695627
2,1, 6, 1, 0,23, 0.00,60.00,Monday
769,21.11054067043276
2050,2435.327736543754
2053,0.4111182698519473
2054,0.4111182698519473
2055,0.0
2056,12.252236310066217
2057,13.666574072268772
2063,14.999645035435803
2285,12.20000000000001
2286,13.666574072268772
2,1, 6, 1, 0,24, 0.00,60.00,Monday
769,20.996708281206499
2050,2348.47033613729
2053,0.4111182698519473
2054,0.4111182698519472
2055,0.0
2056,12.252227862080425
2057,13.616122433628112
2063,14.999645035435803
2285,12.20000000000001
2286,13.616122433628112
2,2, 6, 2, 0, 1, 0.00,60.00,Tuesday
769,20.872702364057948
2050,1669.5856379925784
2053,0.4111182698519473
2054,0.16432773636863905
2055,0.24679053348330866
2056,13.768684170725745
2057,14.738731990864807
2063,14.999645035435803
2285,12.20000000000001
2286,13.222338822012715
2,2, 6, 2, 0, 2, 0.00,60.00,Tuesday
769,20.846098442609788
2050,1821.8150497764005
2053,0.4111182698519473
2054,0.17309679485893285
2055,0.2380214749930149
2056,13.779733239762545
2057,14.838231399658156
2063,14.999645035435803
2285,12.20000000000001
2286,13.310789327350753
2,2, 6, 2, 0, 3, 0.00,60.00,Tuesday
769,20.745929230846455
2050,1779.992631732192
2053,0.4111182698519473
2054,0.16815389225387288
2055,0.24296437759807483
2056,13.822257777823867
2057,14.85646915498117
2063,14.999645035435803
2285,12.20000000000001
2286,13.286503182015965
2,2, 6, 2, 0, 4, 0.00,60.00,Tuesday
769,20.623187410056834
2050,1734.179553447433
2053,0.4111182698519473
2054,0.16243665988795615
2055,0.2486816099639916
2056,13.87499726094439
2057,14.882605562268035
2063,14.999645035435803
2285,12.200000000000009
2286,13.259900896683563
2,2, 6, 2, 0, 5, 0.00,60.00,Tuesday
769,20.53814663035478
2050,1694.737096830576
2053,0.4111182698519473
2054,0.1580921954580746
2055,0.2530260743938732
2056,13.912006884758588
2057,14.896708451515315
2063,14.999645035435803
2285,12.20000000000001
2286,13.236994716925763
2,2, 6, 2, 0, 6, 0.00,60.00,Tuesday
769,20.671446939513918
2050,1745.0348967406063
2053,0.4111182698519473
2054,0.16413462498082749
2055,0.24698364487112027
2056,13.857066991727264
2057,14.870977175802782
2063,15.650612706559802
2285,12.20000000000001
2286,13.2662025107126
2,2, 6, 2, 0, 7, 0.00,60.00,Tuesday
769,21.128052282411124
2050,1933.239981079172
2053,0.4111182698519473
2054,0.16911637698446203
2055,0.2420018928674856
2056,13.663112633346208
2057,14.786312005171558
2063,14.589788486089058
2285,11.90127544043137
2286,13.076764231861798
2,2, 6, 2, 0, 8, 0.00,60.00,Tuesday
769,20.84854996078311
2050,1977.4515944255966
2053,0.4111182698519473
2054,0.11412596589130789
2055,0.29699230396063966
2056,13.776197476023459
2057,14.92512124701696
2063,14.441949611249696
2285,10.574085122177405
2286,11.775300007671975
2,2, 6, 2, 0, 9, 0.00,60.00,Tuesday
769,21.82330331346703
2050,2489.4739706907905
2053,0.4111182698519473
2054,0.11811101259154551
2055,0.2930072572604023
2056,13.371058886850886
2057,14.817302239608619
2063,14.622862746504085
2285,9.605708219117714
2286,11.104236614736318
2,2, 6, 2, 0,10, 0.00,60.00,Tuesday
769,22.57039613845216
2050,2970.5483241334866
2053,0.4111182698519473
2054,0.12463340864270874
2055,0.2864848612092389
2056,13.045723543822105
2057,14.771285832769447
2063,14.710990362573906
2285,8.90954505813645
2286,10.687387515119733
2,2, 6, 2, 0,11, 0.00,60.00,Tuesday
769,23.19791721686129
2050,3418.5668367645309
2053,0.4111182698519473
2054,0.12851351584044508
2055,0.2826047540115027
2056,12.776437016702405
2057,14.762096201498885
2063,14.680753071557563
2285,8.242602591693096
2286,10.2805379102603
2,2, 6, 2, 0,12, 0.00,60.00,Tuesday
769,23.629277458913238
2050,3759.092094377724
2053,0.4111182698519473
2054,0.1325626568527288
2055,0.2785556129992189
2056,12.589625996475588
2057,14.772962016586126
2063,15.005383721907079
2285,7.839767802678191
2286,10.075377158233925
2,2, 6, 2, 0,13, 0.00,60.00,Tuesday
769,23.644829619335785
2050,3886.515673072086
2053,0.4111182698519473
2054,0.13294265946631848
2055,0.27817561038562929
2056,12.579493248122624
2057,14.836832682106378
2063,15.803043711986663
2285,7.693420407329012
2286,10.003033025042717
2,2, 6, 2, 0,14, 0.00,60.00,Tuesday
769,23.614540480426549
2050,3903.86887912288
2053,0.4111182698519473
2054,0.1303265183339063
2055,0.28079175151804139
2056,12.592645535171885
2057,14.860072223850234
2063,15.592471998898019
2285,7.542390403481804
2286,9.86209047286623
2,2, 6, 2, 0,15, 0.00,60.00,Tuesday
769,23.222967850448844
2050,3675.2467200555308
2053,0.4111182698519473
2054,0.12230338130641506
2055,0.2888148885455326
2056,12.759184078837122
2057,14.893925090189518
2063,15.533001972273916
2285,7.542342342342349
2286,9.729359228966997
2,2, 6, 2, 0,16, 0.00,60.00,Tuesday
769,23.002281592596657
2050,3464.728140694789
2053,0.4111182698519473
2054,0.11588607767508237
2055,0.2952321921768653
2056,12.854807064570043
2057,14.867325296228192
2063,15.646300654134917
2285,7.542342342342349
2286,9.607137881791193
2,2, 6, 2, 0,17, 0.00,60.00,Tuesday
769,22.803081048355165
2050,3289.870262816896
2053,0.4111182698519473
2054,0.1126853012665643
2055,0.29843296858538345
2056,12.940194399741533
2057,14.851191642430362
2063,15.941329456496636
2285,7.6885615746529709
2286,9.651837404310676
2,2, 6, 2, 0,18, 0.00,60.00,Tuesday
769,22.144218698137427
2050,2969.3349367417529
2053,0.4111182698519473
2054,0.10464014967474332
2055,0.3064781201772043
2056,13.218331043100886
2057,14.943274482856186
2063,14.997767581680155
2285,7.961440938759038
2286,9.738667132731547
2,2, 6, 2, 0,19, 0.00,60.00,Tuesday
769,21.63379498247547
2050,2702.495601212665
2053,0.4111182698519473
2054,0.10455871024942166
2055,0.30655955960252598
2056,13.43925130898263
2057,15.009282470035679
2063,14.938115725748844
2285,8.623484521576808
2286,10.24580174724311
2,2, 6, 2, 0,20, 0.00,60.00,Tuesday
769,21.325121024407929
2050,2488.111328651192
2053,0.4111182698519473
2054,0.11689970216006955
2055,0.2942185676918781
2056,13.573165061933692
2057,15.018704114761239
2063,14.938115725748844
2285,9.73780831049021
2286,11.235635434844405
2,2, 6, 2, 0,21, 0.00,60.00,Tuesday
769,21.084613992039637
2050,2290.1757647646038
2053,0.4111182698519473
2054,0.1374430797665634
2055,0.2736751900853843
2056,13.676419391681158
2057,15.007001579912677
2063,14.938115725748844
2285,10.853070067888167
2286,12.235941875123145
2,2, 6, 2, 0,22, 0.00,60.00,Tuesday
769,21.595660975542413
2050,2327.227420699262
2053,0.4111182698519473
2054,0.15714226294095955
2055,0.25397600691098817
2056,13.464123808594686
2057,14.816150632814085
2063,15.485670340760399
2285,11.138962390459718
2286,12.543275652045132
2,2, 6, 2, 0,23, 0.00,60.00,Tuesday
769,21.52523003827213
2050,2227.074575957463
2053,0.4111182698519473
2054,0.16469579062688015
2055,0.24642247922506756
2056,13.487013679627877
2057,14.780864119100908
2063,14.998565530885229
2285,11.39838745939013
2286,12.744524679260176
2,2, 6, 2, 0,24, 0.00,60.00,Tuesday
769,21.320955209933389
2050,2115.730209248036
2053,0.4111182698519473
2054,0.17585589415540416
2055,0.23526237569654363
2056,13.575874044480115
2057,14.805068860443243
2063,14.998565530885229
2285,11.805856795763618
2286,13.087339723785054
End of Data
 Number of Records Written=         960
