Program Version,EnergyPlus, Version 9.4.0-998c4b761e, YMD=2021.07.02 01:04
1,5,Environment Title[],Latitude[deg],Longitude[deg],Time Zone[],Elevation[m]
2,8,Day of Simulation[],Month[],Day of Month[],DST Indicator[1=yes 0=no],Hour[],StartMinute[],EndMinute[],DayType
3,5,Cumulative Day of Simulation[],Month[],Day of Month[],DST Indicator[1=yes 0=no],DayType  ! When Daily Meters Requested
4,2,Cumulative Days of Simulation[],Month[]  ! When Monthly Meters Requested
5,1,Cumulative Days of Simulation[] ! When Run Period Meters Requested
6,1,Calendar Year of Simulation[] ! When Annual Meters Requested
59,1,Electricity:Facility [J] !Hourly
1716,1,ElectricityNet:Facility [J] !Hourly
95,1,InteriorLights:Electricity [J] !Hourly
512,1,InteriorEquipment:Electricity [J] !Hourly
End of Data Dictionary
1,ATLANTA-HARTSFIELD.JACKSON.INTL.AP_GA_USA ANN HTG 99.6% CONDNS DB,  41.98, -87.92,  -6.00, 201.00
2,1, 1,21, 0, 1, 0.00,60.00,WinterDesignDay
59,29917803.10897668
95,0.0
512,0.0
1716,29917803.10897668
2,1, 1,21, 0, 2, 0.00,60.00,WinterDesignDay
59,29899803.10897668
95,0.0
512,0.0
1716,29899803.10897668
2,1, 1,21, 0, 3, 0.00,60.00,WinterDesignDay
59,29857803.10897668
95,0.0
512,0.0
1716,29857803.10897668
2,1, 1,21, 0, 4, 0.00,60.00,WinterDesignDay
59,29851803.10897668
95,0.0
512,0.0
1716,29851803.10897668
2,1, 1,21, 0, 5, 0.00,60.00,WinterDesignDay
59,29881803.10897668
95,0.0
512,0.0
1716,29881803.10897668
2,1, 1,21, 0, 6, 0.00,60.00,WinterDesignDay
59,29923803.10897668
95,0.0
512,0.0
1716,29923803.10897668
2,1, 1,21, 0, 7, 0.00,60.00,WinterDesignDay
59,39540063.10897667
95,0.0
512,0.0
1716,39540063.10897667
2,1, 1,21, 0, 8, 0.00,60.00,WinterDesignDay
59,27114273.108976678
95,0.0
512,0.0
1716,27114273.108976678
2,1, 1,21, 0, 9, 0.00,60.00,WinterDesignDay
59,21102663.1089767
95,0.0
512,0.0
1716,21102663.1089767
2,1, 1,21, 0,10, 0.00,60.00,WinterDesignDay
59,21222663.1089767
95,0.0
512,0.0
1716,21222663.1089767
2,1, 1,21, 0,11, 0.00,60.00,WinterDesignDay
59,21180663.1089767
95,0.0
512,0.0
1716,21180663.1089767
2,1, 1,21, 0,12, 0.00,60.00,WinterDesignDay
59,21240663.1089767
95,0.0
512,0.0
1716,21240663.1089767
2,1, 1,21, 0,13, 0.00,60.00,WinterDesignDay
59,21252663.1089767
95,0.0
512,0.0
1716,21252663.1089767
2,1, 1,21, 0,14, 0.00,60.00,WinterDesignDay
59,21144663.1089767
95,0.0
512,0.0
1716,21144663.1089767
2,1, 1,21, 0,15, 0.00,60.00,WinterDesignDay
59,21108663.1089767
95,0.0
512,0.0
1716,21108663.1089767
2,1, 1,21, 0,16, 0.00,60.00,WinterDesignDay
59,21162663.1089767
95,0.0
512,0.0
1716,21162663.1089767
2,1, 1,21, 0,17, 0.00,60.00,WinterDesignDay
59,25597323.1089767
95,0.0
512,0.0
1716,25597323.1089767
2,1, 1,21, 0,18, 0.00,60.00,WinterDesignDay
59,40110063.10897667
95,0.0
512,0.0
1716,40110063.10897667
2,1, 1,21, 0,19, 0.00,60.00,WinterDesignDay
59,40770063.10897667
95,0.0
512,0.0
1716,40770063.10897667
2,1, 1,21, 0,20, 0.00,60.00,WinterDesignDay
59,32349183.108976678
95,0.0
512,0.0
1716,32349183.108976678
2,1, 1,21, 0,21, 0.00,60.00,WinterDesignDay
59,32367183.108976678
95,0.0
512,0.0
1716,32367183.108976678
2,1, 1,21, 0,22, 0.00,60.00,WinterDesignDay
59,32349183.108976678
95,0.0
512,0.0
1716,32349183.108976678
2,1, 1,21, 0,23, 0.00,60.00,WinterDesignDay
59,32427183.108976678
95,0.0
512,0.0
1716,32427183.108976678
2,1, 1,21, 0,24, 0.00,60.00,WinterDesignDay
59,32451183.108976678
95,0.0
512,0.0
1716,32451183.108976678
1,ATLANTA-HARTSFIELD.JACKSON.INTL.AP_GA_USA ANN CLG .4% CONDNS DB=>MWB,  41.98, -87.92,  -6.00, 201.00
2,1, 7,21, 0, 1, 0.00,60.00,SummerDesignDay
59,420344752.782948
95,152517470.7542746
512,224813060.55296675
1716,420344752.782948
2,1, 7,21, 0, 2, 0.00,60.00,SummerDesignDay
59,420434752.782948
95,152517470.7542746
512,224813060.55296675
1716,420434752.782948
2,1, 7,21, 0, 3, 0.00,60.00,SummerDesignDay
59,420428752.782948
95,152517470.7542746
512,224813060.55296675
1716,420428752.782948
2,1, 7,21, 0, 4, 0.00,60.00,SummerDesignDay
59,420428752.782948
95,152517470.7542746
512,224813060.55296675
1716,420428752.782948
2,1, 7,21, 0, 5, 0.00,60.00,SummerDesignDay
59,416760959.96457406
95,151903095.9359005
512,224813060.55296675
1716,416760959.96457406
2,1, 7,21, 0, 6, 0.00,60.00,SummerDesignDay
59,389367863.352055
95,128071818.04907707
512,224813060.55296675
1716,389367863.35205498
2,1, 7,21, 0, 7, 0.00,60.00,SummerDesignDay
59,383971821.9611988
95,120497854.10498229
512,224813060.55296675
1716,383971821.9611988
2,1, 7,21, 0, 8, 0.00,60.00,SummerDesignDay
59,386995829.21737816
95,119991185.40467149
512,224813060.55296675
1716,386995829.21737816
2,1, 7,21, 0, 9, 0.00,60.00,SummerDesignDay
59,386929869.7640088
95,119991185.40467149
512,224813060.55296675
1716,386929869.76400879
2,1, 7,21, 0,10, 0.00,60.00,SummerDesignDay
59,387374780.6950461
95,119991185.40467149
512,224813060.55296675
1716,387374780.69504609
2,1, 7,21, 0,11, 0.00,60.00,SummerDesignDay
59,387627436.2602968
95,119991185.40467149
512,224813060.55296675
1716,387627436.2602968
2,1, 7,21, 0,12, 0.00,60.00,SummerDesignDay
59,387463486.32514849
95,119991185.40467149
512,224813060.55296675
1716,387463486.32514849
2,1, 7,21, 0,13, 0.00,60.00,SummerDesignDay
59,387691682.9691018
95,119991185.40467149
512,224813060.55296675
1716,387691682.9691018
2,1, 7,21, 0,14, 0.00,60.00,SummerDesignDay
59,388461719.88351538
95,119991185.40467149
512,224813060.55296675
1716,388461719.88351538
2,1, 7,21, 0,15, 0.00,60.00,SummerDesignDay
59,388858596.1190335
95,119991185.40467149
512,224813060.55296675
1716,388858596.1190335
2,1, 7,21, 0,16, 0.00,60.00,SummerDesignDay
59,388560472.4631069
95,119991185.40467149
512,224813060.55296675
1716,388560472.4631069
2,1, 7,21, 0,17, 0.00,60.00,SummerDesignDay
59,387659795.7283288
95,119991185.40467149
512,224813060.55296675
1716,387659795.7283288
2,1, 7,21, 0,18, 0.00,60.00,SummerDesignDay
59,387236150.9791234
95,120633945.22274417
512,224813060.55296675
1716,387236150.9791234
2,1, 7,21, 0,19, 0.00,60.00,SummerDesignDay
59,395954804.12521198
95,130861359.31742129
512,224813060.55296675
1716,395954804.125212
2,1, 7,21, 0,20, 0.00,60.00,SummerDesignDay
59,424219136.1602502
95,152399856.5668155
512,224813060.55296675
1716,424219136.1602501
2,1, 7,21, 0,21, 0.00,60.00,SummerDesignDay
59,427391656.6828498
95,152517470.7542746
512,224813060.55296675
1716,427391656.6828498
2,1, 7,21, 0,22, 0.00,60.00,SummerDesignDay
59,427474197.9717074
95,152517470.7542746
512,224813060.55296675
1716,427474197.97170737
2,1, 7,21, 0,23, 0.00,60.00,SummerDesignDay
59,423880132.782948
95,152517470.7542746
512,224813060.55296675
1716,423880132.782948
2,1, 7,21, 0,24, 0.00,60.00,SummerDesignDay
59,423190132.782948
95,152517470.7542746
512,224813060.55296675
1716,423190132.782948
1,RUNPERIOD 1,  41.98, -87.92,  -6.00, 201.00
2,1, 6, 1, 0, 1, 0.00,60.00,Monday
59,87265141.95480199
95,7625873.53771374
512,44533202.00181081
1716,87265141.95480199
2,1, 6, 1, 0, 2, 0.00,60.00,Monday
59,86947141.95480199
95,7625873.53771374
512,44533202.00181081
1716,86947141.95480199
2,1, 6, 1, 0, 3, 0.00,60.00,Monday
59,86929141.95480199
95,7625873.53771374
512,44533202.00181081
1716,86929141.95480199
2,1, 6, 1, 0, 4, 0.00,60.00,Monday
59,86971141.95480199
95,7625873.53771374
512,44533202.00181081
1716,86971141.95480199
2,1, 6, 1, 0, 5, 0.00,60.00,Monday
59,81848047.70039477
95,7591463.283306486
512,44533202.00181081
1716,81848047.70039477
2,1, 6, 1, 0, 6, 0.00,60.00,Monday
59,84767382.34742318
95,13781253.930334909
512,44533202.00181081
1716,84767382.34742318
2,1, 6, 1, 0, 7, 0.00,60.00,Monday
59,92785616.69802343
95,10642158.404433685
512,55180531.87831209
1716,92785616.69802343
2,1, 6, 1, 0, 8, 0.00,60.00,Monday
59,159151843.61485545
95,31063997.337583778
512,95796493.41677362
1716,159151843.61485545
2,1, 6, 1, 0, 9, 0.00,60.00,Monday
59,333407635.52754458
95,93124323.85391505
512,204227663.7591696
1716,333407635.5275445
2,1, 6, 1, 0,10, 0.00,60.00,Monday
59,303584820.2186447
95,93124323.85391505
512,174055806.61631225
1716,303584820.2186447
2,1, 6, 1, 0,11, 0.00,60.00,Monday
59,296591426.99086919
95,93124323.85391505
512,167093070.3525762
1716,296591426.99086919
2,1, 6, 1, 0,12, 0.00,60.00,Monday
59,303787186.37123867
95,93124323.85391505
512,174055806.61631225
1716,303787186.37123867
2,1, 6, 1, 0,13, 0.00,60.00,Monday
59,306828015.170285
95,93124323.85391505
512,177667514.30607493
1716,306828015.170285
2,1, 6, 1, 0,14, 0.00,60.00,Monday
59,310242016.6097722
95,93124323.85391505
512,179858086.83609239
1716,310242016.6097721
2,1, 6, 1, 0,15, 0.00,60.00,Monday
59,298015577.3702033
95,93124323.85391505
512,167093070.3525762
1716,298015577.3702033
2,1, 6, 1, 0,16, 0.00,60.00,Monday
59,298122707.8036093
95,93124323.85391505
512,167093070.3525762
1716,298122707.8036093
2,1, 6, 1, 0,17, 0.00,60.00,Monday
59,309694793.2061983
95,93312593.52151679
512,177537174.74818046
1716,309694793.2061983
2,1, 6, 1, 0,18, 0.00,60.00,Monday
59,229809989.45685346
95,52916249.32147222
512,140923939.57316477
1716,229809989.45685346
2,1, 6, 1, 0,19, 0.00,60.00,Monday
59,136091916.6283522
95,34101110.27107747
512,69106004.40578471
1716,136091916.6283522
2,1, 6, 1, 0,20, 0.00,60.00,Monday
59,138809597.01622427
95,39152827.48638166
512,59822356.054136309
1716,138809597.01622427
2,1, 6, 1, 0,21, 0.00,60.00,Monday
59,117047766.64562151
95,26303943.895732464
512,59822356.054136309
1716,117047766.64562151
2,1, 6, 1, 0,22, 0.00,60.00,Monday
59,113466854.7993453
95,26303943.895732464
512,55180531.87831209
1716,113466854.7993453
2,1, 6, 1, 0,23, 0.00,60.00,Monday
59,106253950.2414557
95,13151971.947866232
512,55180531.87831209
1716,106253950.2414557
2,1, 6, 1, 0,24, 0.00,60.00,Monday
59,99599964.26752277
95,6575985.973933116
512,55180531.87831209
1716,99599964.26752277
2,2, 6, 2, 0, 1, 0.00,60.00,Tuesday
59,87265141.95480199
95,7625873.53771374
512,44533202.00181081
1716,87265141.95480199
2,2, 6, 2, 0, 2, 0.00,60.00,Tuesday
59,86899141.95480199
95,7625873.53771374
512,44533202.00181081
1716,86899141.95480199
2,2, 6, 2, 0, 3, 0.00,60.00,Tuesday
59,86923141.95480199
95,7625873.53771374
512,44533202.00181081
1716,86923141.95480199
2,2, 6, 2, 0, 4, 0.00,60.00,Tuesday
59,86899141.95480199
95,7625873.53771374
512,44533202.00181081
1716,86899141.95480199
2,2, 6, 2, 0, 5, 0.00,60.00,Tuesday
59,81422476.79570709
95,7391411.3786188079
512,44533202.00181081
1716,81422476.79570709
2,2, 6, 2, 0, 6, 0.00,60.00,Tuesday
59,83740824.16608337
95,12466695.748995169
512,44533202.00181081
1716,83740824.16608337
2,2, 6, 2, 0, 7, 0.00,60.00,Tuesday
59,93987593.1525113
95,10422134.858921607
512,55180531.87831209
1716,93987593.1525113
2,2, 6, 2, 0, 8, 0.00,60.00,Tuesday
59,160176432.31110809
95,31041441.28463835
512,95796493.41677362
1716,160176432.31110803
2,2, 6, 2, 0, 9, 0.00,60.00,Tuesday
59,333374676.46468058
95,93124323.85391505
512,204227663.7591696
1716,333374676.46468058
2,2, 6, 2, 0,10, 0.00,60.00,Tuesday
59,303742565.2531654
95,93124323.85391505
512,174055806.61631225
1716,303742565.2531654
2,2, 6, 2, 0,11, 0.00,60.00,Tuesday
59,296764219.5321534
95,93124323.85391505
512,167093070.3525762
1716,296764219.5321534
2,2, 6, 2, 0,12, 0.00,60.00,Tuesday
59,303846962.0332786
95,93124323.85391505
512,174055806.61631225
1716,303846962.0332786
2,2, 6, 2, 0,13, 0.00,60.00,Tuesday
59,307772396.4355718
95,93124323.85391505
512,177667514.30607493
1716,307772396.4355718
2,2, 6, 2, 0,14, 0.00,60.00,Tuesday
59,310274421.8833395
95,93124323.85391505
512,179858086.83609239
1716,310274421.8833395
2,2, 6, 2, 0,15, 0.00,60.00,Tuesday
59,297143727.6752446
95,93124323.85391505
512,167093070.3525762
1716,297143727.67524459
2,2, 6, 2, 0,16, 0.00,60.00,Tuesday
59,297015051.4415897
95,93133991.36789204
512,167093070.3525762
1716,297015051.4415897
2,2, 6, 2, 0,17, 0.00,60.00,Tuesday
59,308311219.6467923
95,93559746.61659938
512,177537174.74818046
1716,308311219.6467923
2,2, 6, 2, 0,18, 0.00,60.00,Tuesday
59,228275648.1832943
95,52740507.402017209
512,140923939.57316477
1716,228275648.18329428
2,2, 6, 2, 0,19, 0.00,60.00,Tuesday
59,135499111.50038249
95,34330025.61889131
512,69106004.40578471
1716,135499111.50038249
2,2, 6, 2, 0,20, 0.00,60.00,Tuesday
59,138752359.95576043
95,39225532.42591783
512,59822356.054136309
1716,138752359.95576043
2,2, 6, 2, 0,21, 0.00,60.00,Tuesday
59,128589901.4255753
95,26303943.895732464
512,59822356.054136309
1716,128589901.4255753
2,2, 6, 2, 0,22, 0.00,60.00,Tuesday
59,119519922.1893221
95,26303943.895732464
512,55180531.87831209
1716,119519922.1893221
2,2, 6, 2, 0,23, 0.00,60.00,Tuesday
59,106673950.2414557
95,13151971.947866232
512,55180531.87831209
1716,106673950.2414557
2,2, 6, 2, 0,24, 0.00,60.00,Tuesday
59,100013964.26752277
95,6575985.973933116
512,55180531.87831209
1716,100013964.26752277
End of Data
 Number of Records Written=         384
