Program Version,EnergyPlus, Version 9.4.0-998c4b761e, YMD=2021.07.08 03:15
1,5,Environment Title[],Latitude[deg],Longitude[deg],Time Zone[],Elevation[m]
2,8,Day of Simulation[],Month[],Day of Month[],DST Indicator[1=yes 0=no],Hour[],StartMinute[],EndMinute[],DayType
3,5,Cumulative Day of Simulation[],Month[],Day of Month[],DST Indicator[1=yes 0=no],DayType  ! When Daily Meters Requested
4,2,Cumulative Days of Simulation[],Month[]  ! When Monthly Meters Requested
5,1,Cumulative Days of Simulation[] ! When Run Period Meters Requested
6,1,Calendar Year of Simulation[] ! When Annual Meters Requested
59,1,Electricity:Facility [J] !Hourly
1716,1,ElectricityNet:Facility [J] !Hourly
95,1,InteriorLights:Electricity [J] !Hourly
512,1,InteriorEquipment:Electricity [J] !Hourly
End of Data Dictionary
1,ATLANTA-HARTSFIELD.JACKSON.INTL.AP_GA_USA ANN HTG 99.6% CONDNS DB,  41.98, -87.92,  -6.00, 201.00
2,1, 1,21, 0, 1, 0.00,60.00,WinterDesignDay
59,29917803.10897668
95,0.0
512,0.0
1716,29917803.10897668
2,1, 1,21, 0, 2, 0.00,60.00,WinterDesignDay
59,29899803.10897668
95,0.0
512,0.0
1716,29899803.10897668
2,1, 1,21, 0, 3, 0.00,60.00,WinterDesignDay
59,29857803.10897668
95,0.0
512,0.0
1716,29857803.10897668
2,1, 1,21, 0, 4, 0.00,60.00,WinterDesignDay
59,29851803.10897668
95,0.0
512,0.0
1716,29851803.10897668
2,1, 1,21, 0, 5, 0.00,60.00,WinterDesignDay
59,29881803.10897668
95,0.0
512,0.0
1716,29881803.10897668
2,1, 1,21, 0, 6, 0.00,60.00,WinterDesignDay
59,29923803.10897668
95,0.0
512,0.0
1716,29923803.10897668
2,1, 1,21, 0, 7, 0.00,60.00,WinterDesignDay
59,39540063.10897667
95,0.0
512,0.0
1716,39540063.10897667
2,1, 1,21, 0, 8, 0.00,60.00,WinterDesignDay
59,27114273.108976678
95,0.0
512,0.0
1716,27114273.108976678
2,1, 1,21, 0, 9, 0.00,60.00,WinterDesignDay
59,21102663.1089767
95,0.0
512,0.0
1716,21102663.1089767
2,1, 1,21, 0,10, 0.00,60.00,WinterDesignDay
59,21222663.1089767
95,0.0
512,0.0
1716,21222663.1089767
2,1, 1,21, 0,11, 0.00,60.00,WinterDesignDay
59,21180663.1089767
95,0.0
512,0.0
1716,21180663.1089767
2,1, 1,21, 0,12, 0.00,60.00,WinterDesignDay
59,21240663.1089767
95,0.0
512,0.0
1716,21240663.1089767
2,1, 1,21, 0,13, 0.00,60.00,WinterDesignDay
59,21252663.1089767
95,0.0
512,0.0
1716,21252663.1089767
2,1, 1,21, 0,14, 0.00,60.00,WinterDesignDay
59,21144663.1089767
95,0.0
512,0.0
1716,21144663.1089767
2,1, 1,21, 0,15, 0.00,60.00,WinterDesignDay
59,21108663.1089767
95,0.0
512,0.0
1716,21108663.1089767
2,1, 1,21, 0,16, 0.00,60.00,WinterDesignDay
59,21162663.1089767
95,0.0
512,0.0
1716,21162663.1089767
2,1, 1,21, 0,17, 0.00,60.00,WinterDesignDay
59,25597323.1089767
95,0.0
512,0.0
1716,25597323.1089767
2,1, 1,21, 0,18, 0.00,60.00,WinterDesignDay
59,40110063.10897667
95,0.0
512,0.0
1716,40110063.10897667
2,1, 1,21, 0,19, 0.00,60.00,WinterDesignDay
59,40770063.10897667
95,0.0
512,0.0
1716,40770063.10897667
2,1, 1,21, 0,20, 0.00,60.00,WinterDesignDay
59,32349183.108976678
95,0.0
512,0.0
1716,32349183.108976678
2,1, 1,21, 0,21, 0.00,60.00,WinterDesignDay
59,32367183.108976678
95,0.0
512,0.0
1716,32367183.108976678
2,1, 1,21, 0,22, 0.00,60.00,WinterDesignDay
59,32349183.108976678
95,0.0
512,0.0
1716,32349183.108976678
2,1, 1,21, 0,23, 0.00,60.00,WinterDesignDay
59,32427183.108976678
95,0.0
512,0.0
1716,32427183.108976678
2,1, 1,21, 0,24, 0.00,60.00,WinterDesignDay
59,32451183.108976678
95,0.0
512,0.0
1716,32451183.108976678
1,ATLANTA-HARTSFIELD.JACKSON.INTL.AP_GA_USA ANN CLG .4% CONDNS DB=>MWB,  41.98, -87.92,  -6.00, 201.00
2,1, 7,21, 0, 1, 0.00,60.00,SummerDesignDay
59,420344752.782948
95,152517470.7542746
512,224813060.55296675
1716,420344752.782948
2,1, 7,21, 0, 2, 0.00,60.00,SummerDesignDay
59,420434752.782948
95,152517470.7542746
512,224813060.55296675
1716,420434752.782948
2,1, 7,21, 0, 3, 0.00,60.00,SummerDesignDay
59,420428752.782948
95,152517470.7542746
512,224813060.55296675
1716,420428752.782948
2,1, 7,21, 0, 4, 0.00,60.00,SummerDesignDay
59,420428752.782948
95,152517470.7542746
512,224813060.55296675
1716,420428752.782948
2,1, 7,21, 0, 5, 0.00,60.00,SummerDesignDay
59,416760959.96457406
95,151903095.9359005
512,224813060.55296675
1716,416760959.96457406
2,1, 7,21, 0, 6, 0.00,60.00,SummerDesignDay
59,389367863.3448646
95,128071818.04907707
512,224813060.55296675
1716,389367863.34486457
2,1, 7,21, 0, 7, 0.00,60.00,SummerDesignDay
59,383971822.14623698
95,120497854.10498229
512,224813060.55296675
1716,383971822.14623698
2,1, 7,21, 0, 8, 0.00,60.00,SummerDesignDay
59,386995829.226677
95,119991185.40467149
512,224813060.55296675
1716,386995829.226677
2,1, 7,21, 0, 9, 0.00,60.00,SummerDesignDay
59,386929869.74584177
95,119991185.40467149
512,224813060.55296675
1716,386929869.74584177
2,1, 7,21, 0,10, 0.00,60.00,SummerDesignDay
59,387374780.6644485
95,119991185.40467149
512,224813060.55296675
1716,387374780.66444846
2,1, 7,21, 0,11, 0.00,60.00,SummerDesignDay
59,387627436.2112371
95,119991185.40467149
512,224813060.55296675
1716,387627436.2112371
2,1, 7,21, 0,12, 0.00,60.00,SummerDesignDay
59,387463486.2988365
95,119991185.40467149
512,224813060.55296675
1716,387463486.2988365
2,1, 7,21, 0,13, 0.00,60.00,SummerDesignDay
59,387691682.9809915
95,119991185.40467149
512,224813060.55296675
1716,387691682.9809915
2,1, 7,21, 0,14, 0.00,60.00,SummerDesignDay
59,388461719.9211077
95,119991185.40467149
512,224813060.55296675
1716,388461719.9211077
2,1, 7,21, 0,15, 0.00,60.00,SummerDesignDay
59,388858596.10680779
95,119991185.40467149
512,224813060.55296675
1716,388858596.1068077
2,1, 7,21, 0,16, 0.00,60.00,SummerDesignDay
59,388560472.5173475
95,119991185.40467149
512,224813060.55296675
1716,388560472.51734748
2,1, 7,21, 0,17, 0.00,60.00,SummerDesignDay
59,387659795.7421172
95,119991185.40467149
512,224813060.55296675
1716,387659795.7421172
2,1, 7,21, 0,18, 0.00,60.00,SummerDesignDay
59,387236150.9823933
95,120633945.22274417
512,224813060.55296675
1716,387236150.9823934
2,1, 7,21, 0,19, 0.00,60.00,SummerDesignDay
59,395954804.10436478
95,130861359.31742129
512,224813060.55296675
1716,395954804.10436478
2,1, 7,21, 0,20, 0.00,60.00,SummerDesignDay
59,424219136.1659449
95,152399856.5668155
512,224813060.55296675
1716,424219136.1659449
2,1, 7,21, 0,21, 0.00,60.00,SummerDesignDay
59,427391656.6778234
95,152517470.7542746
512,224813060.55296675
1716,427391656.6778233
2,1, 7,21, 0,22, 0.00,60.00,SummerDesignDay
59,427474197.7897578
95,152517470.7542746
512,224813060.55296675
1716,427474197.7897577
2,1, 7,21, 0,23, 0.00,60.00,SummerDesignDay
59,423880132.782948
95,152517470.7542746
512,224813060.55296675
1716,423880132.782948
2,1, 7,21, 0,24, 0.00,60.00,SummerDesignDay
59,423190132.782948
95,152517470.7542746
512,224813060.55296675
1716,423190132.782948
1,RUNPERIOD 1,  41.98, -87.92,  -6.00, 201.00
2,1, 6, 1, 0, 1, 0.00,60.00,Monday
59,80032305.52454593
95,7625873.53771374
512,44533202.00181081
1716,80032305.52454593
2,1, 6, 1, 0, 2, 0.00,60.00,Monday
59,70541347.18045913
95,7625873.53771374
512,44533202.00181081
1716,70541347.18045913
2,1, 6, 1, 0, 3, 0.00,60.00,Monday
59,68821150.37334006
95,7625873.53771374
512,44533202.00181081
1716,68821150.37334006
2,1, 6, 1, 0, 4, 0.00,60.00,Monday
59,69681248.77689962
95,7625873.53771374
512,44533202.00181081
1716,69681248.77689962
2,1, 6, 1, 0, 5, 0.00,60.00,Monday
59,69198571.64700169
95,7591463.283306486
512,44533202.00181081
1716,69198571.6470017
2,1, 6, 1, 0, 6, 0.00,60.00,Monday
59,75218374.8015567
95,13781253.930334909
512,44533202.00181081
1716,75218374.8015567
2,1, 6, 1, 0, 7, 0.00,60.00,Monday
59,92791616.69802343
95,10642158.404433685
512,55180531.87831209
1716,92791616.69802343
2,1, 6, 1, 0, 8, 0.00,60.00,Monday
59,158429824.89105056
95,31063997.337583778
512,95796493.41677362
1716,158429824.89105056
2,1, 6, 1, 0, 9, 0.00,60.00,Monday
59,333396159.5866335
95,93124323.85391505
512,204227663.7591696
1716,333396159.5866335
2,1, 6, 1, 0,10, 0.00,60.00,Monday
59,303636969.9536877
95,93124323.85391505
512,174055806.61631225
1716,303636969.9536877
2,1, 6, 1, 0,11, 0.00,60.00,Monday
59,296637968.0010244
95,93124323.85391505
512,167093070.3525762
1716,296637968.0010244
2,1, 6, 1, 0,12, 0.00,60.00,Monday
59,304190793.24743637
95,93124323.85391505
512,174055806.61631225
1716,304190793.24743637
2,1, 6, 1, 0,13, 0.00,60.00,Monday
59,306537174.8636217
95,93124323.85391505
512,177667514.30607493
1716,306537174.8636217
2,1, 6, 1, 0,14, 0.00,60.00,Monday
59,310621672.14388689
95,93124323.85391505
512,179858086.83609239
1716,310621672.14388689
2,1, 6, 1, 0,15, 0.00,60.00,Monday
59,297654075.28678646
95,93124323.85391505
512,167093070.3525762
1716,297654075.28678646
2,1, 6, 1, 0,16, 0.00,60.00,Monday
59,298487918.5686653
95,93124323.85391505
512,167093070.3525762
1716,298487918.5686653
2,1, 6, 1, 0,17, 0.00,60.00,Monday
59,309284205.22123876
95,93312593.52151679
512,177537174.74818046
1716,309284205.22123876
2,1, 6, 1, 0,18, 0.00,60.00,Monday
59,230180167.98485948
95,52916249.32147222
512,140923939.57316477
1716,230180167.98485948
2,1, 6, 1, 0,19, 0.00,60.00,Monday
59,135730366.51847256
95,34101110.27107747
512,69106004.40578471
1716,135730366.51847256
2,1, 6, 1, 0,20, 0.00,60.00,Monday
59,139169597.01622427
95,39152827.48638166
512,59822356.054136309
1716,139169597.01622427
2,1, 6, 1, 0,21, 0.00,60.00,Monday
59,116842647.8708097
95,26303943.895732464
512,59822356.054136309
1716,116842647.8708097
2,1, 6, 1, 0,22, 0.00,60.00,Monday
59,113911282.5661851
95,26303943.895732464
512,55180531.87831209
1716,113911282.5661851
2,1, 6, 1, 0,23, 0.00,60.00,Monday
59,106613950.2414557
95,13151971.947866232
512,55180531.87831209
1716,106613950.2414557
2,1, 6, 1, 0,24, 0.00,60.00,Monday
59,99959964.26752277
95,6575985.973933116
512,55180531.87831209
1716,99959964.26752277
2,2, 6, 2, 0, 1, 0.00,60.00,Tuesday
59,79602256.32276616
95,7625873.53771374
512,44533202.00181081
1716,79602256.32276616
2,2, 6, 2, 0, 2, 0.00,60.00,Tuesday
59,67822927.87471242
95,7625873.53771374
512,44533202.00181081
1716,67822927.87471242
2,2, 6, 2, 0, 3, 0.00,60.00,Tuesday
59,68683026.27827196
95,7625873.53771374
512,44533202.00181081
1716,68683026.27827196
2,2, 6, 2, 0, 4, 0.00,60.00,Tuesday
59,67392878.67293266
95,7625873.53771374
512,44533202.00181081
1716,67392878.67293266
2,2, 6, 2, 0, 5, 0.00,60.00,Tuesday
59,61492164.31205796
95,7391411.3786188079
512,44533202.00181081
1716,61492164.31205796
2,2, 6, 2, 0, 6, 0.00,60.00,Tuesday
59,82892725.76252383
95,12466695.748995169
512,44533202.00181081
1716,82892725.76252401
2,2, 6, 2, 0, 7, 0.00,60.00,Tuesday
59,93987593.1525113
95,10422134.858921607
512,55180531.87831209
1716,93987593.1525113
2,2, 6, 2, 0, 8, 0.00,60.00,Tuesday
59,160174531.07336978
95,31041441.28463835
512,95796493.41677362
1716,160174531.07336978
2,2, 6, 2, 0, 9, 0.00,60.00,Tuesday
59,333374343.8077606
95,93124323.85391505
512,204227663.7591696
1716,333374343.8077605
2,2, 6, 2, 0,10, 0.00,60.00,Tuesday
59,303742037.053191
95,93124323.85391505
512,174055806.61631225
1716,303742037.053191
2,2, 6, 2, 0,11, 0.00,60.00,Tuesday
59,296764169.08828637
95,93124323.85391505
512,167093070.3525762
1716,296764169.08828637
2,2, 6, 2, 0,12, 0.00,60.00,Tuesday
59,303847839.7314794
95,93124323.85391505
512,174055806.61631225
1716,303847839.7314794
2,2, 6, 2, 0,13, 0.00,60.00,Tuesday
59,307773165.5306666
95,93124323.85391505
512,177667514.30607493
1716,307773165.5306666
2,2, 6, 2, 0,14, 0.00,60.00,Tuesday
59,310268819.15351006
95,93124323.85391505
512,179858086.83609239
1716,310268819.15351
2,2, 6, 2, 0,15, 0.00,60.00,Tuesday
59,297138213.6492119
95,93124323.85391505
512,167093070.3525762
1716,297138213.6492119
2,2, 6, 2, 0,16, 0.00,60.00,Tuesday
59,297021427.5191709
95,93133991.36789204
512,167093070.3525762
1716,297021427.5191709
2,2, 6, 2, 0,17, 0.00,60.00,Tuesday
59,308299548.43987736
95,93559746.61659938
512,177537174.74818046
1716,308299548.43987736
2,2, 6, 2, 0,18, 0.00,60.00,Tuesday
59,228282351.76812617
95,52740507.402017209
512,140923939.57316477
1716,228282351.76812617
2,2, 6, 2, 0,19, 0.00,60.00,Tuesday
59,135493111.5003825
95,34330025.61889131
512,69106004.40578471
1716,135493111.50038249
2,2, 6, 2, 0,20, 0.00,60.00,Tuesday
59,138752359.95576043
95,39225532.42591783
512,59822356.054136309
1716,138752359.95576043
2,2, 6, 2, 0,21, 0.00,60.00,Tuesday
59,128589901.4255753
95,26303943.895732464
512,59822356.054136309
1716,128589901.4255753
2,2, 6, 2, 0,22, 0.00,60.00,Tuesday
59,114019282.5661851
95,26303943.895732464
512,55180531.87831209
1716,114019282.5661851
2,2, 6, 2, 0,23, 0.00,60.00,Tuesday
59,106673950.2414557
95,13151971.947866232
512,55180531.87831209
1716,106673950.2414557
2,2, 6, 2, 0,24, 0.00,60.00,Tuesday
59,100019964.26752277
95,6575985.973933116
512,55180531.87831209
1716,100019964.26752277
End of Data
 Number of Records Written=         384
