Program Version,EnergyPlus, Version 9.5.0-de239b2e5f, YMD=2021.07.16 03:59
1,5,Environment Title[],Latitude[deg],Longitude[deg],Time Zone[],Elevation[m]
2,8,Day of Simulation[],Month[],Day of Month[],DST Indicator[1=yes 0=no],Hour[],StartMinute[],EndMinute[],DayType
3,5,Cumulative Day of Simulation[],Month[],Day of Month[],DST Indicator[1=yes 0=no],DayType  ! When Daily Meters Requested
4,2,Cumulative Days of Simulation[],Month[]  ! When Monthly Meters Requested
5,1,Cumulative Days of Simulation[] ! When Run Period Meters Requested
6,1,Calendar Year of Simulation[] ! When Annual Meters Requested
9,1,Electricity:Facility [J] !Hourly
1508,1,ElectricityNet:Facility [J] !Hourly
45,1,InteriorLights:Electricity [J] !Hourly
432,1,InteriorEquipment:Electricity [J] !Hourly
End of Data Dictionary
1,ATLANTA-HARTSFIELD.JACKSON.INTL.AP_GA_USA ANN HTG 99.6% CONDNS DB,  33.63, -84.43,  -5.00, 308.00
2,1, 1,21, 0, 1, 0.00,60.00,WinterDesignDay
9,115919623.926708
45,0.0
432,0.0
1508,115919623.926708
2,1, 1,21, 0, 2, 0.00,60.00,WinterDesignDay
9,115955623.926708
45,0.0
432,0.0
1508,115955623.926708
2,1, 1,21, 0, 3, 0.00,60.00,WinterDesignDay
9,115919623.926708
45,0.0
432,0.0
1508,115919623.926708
2,1, 1,21, 0, 4, 0.00,60.00,WinterDesignDay
9,115919623.926708
45,0.0
432,0.0
1508,115919623.926708
2,1, 1,21, 0, 5, 0.00,60.00,WinterDesignDay
9,115919623.926708
45,0.0
432,0.0
1508,115919623.926708
2,1, 1,21, 0, 6, 0.00,60.00,WinterDesignDay
9,115919623.926708
45,0.0
432,0.0
1508,115919623.926708
2,1, 1,21, 0, 7, 0.00,60.00,WinterDesignDay
9,126063883.92670787
45,0.0
432,0.0
1508,126063883.92670787
2,1, 1,21, 0, 8, 0.00,60.00,WinterDesignDay
9,121423033.92670787
45,0.0
432,0.0
1508,121423033.92670787
2,1, 1,21, 0, 9, 0.00,60.00,WinterDesignDay
9,107248483.92670802
45,0.0
432,0.0
1508,107248483.92670802
2,1, 1,21, 0,10, 0.00,60.00,WinterDesignDay
9,107284483.92670802
45,0.0
432,0.0
1508,107284483.92670802
2,1, 1,21, 0,11, 0.00,60.00,WinterDesignDay
9,107284483.92670802
45,0.0
432,0.0
1508,107284483.92670802
2,1, 1,21, 0,12, 0.00,60.00,WinterDesignDay
9,107248483.92670802
45,0.0
432,0.0
1508,107248483.92670802
2,1, 1,21, 0,13, 0.00,60.00,WinterDesignDay
9,107284483.92670802
45,0.0
432,0.0
1508,107284483.92670802
2,1, 1,21, 0,14, 0.00,60.00,WinterDesignDay
9,107284483.92670802
45,0.0
432,0.0
1508,107284483.92670802
2,1, 1,21, 0,15, 0.00,60.00,WinterDesignDay
9,107284483.92670802
45,0.0
432,0.0
1508,107284483.92670802
2,1, 1,21, 0,16, 0.00,60.00,WinterDesignDay
9,107248483.92670802
45,0.0
432,0.0
1508,107248483.92670802
2,1, 1,21, 0,17, 0.00,60.00,WinterDesignDay
9,107284483.92670802
45,0.0
432,0.0
1508,107284483.92670802
2,1, 1,21, 0,18, 0.00,60.00,WinterDesignDay
9,109798003.92670802
45,0.0
432,0.0
1508,109798003.92670802
2,1, 1,21, 0,19, 0.00,60.00,WinterDesignDay
9,126423883.92670787
45,0.0
432,0.0
1508,126423883.92670787
2,1, 1,21, 0,20, 0.00,60.00,WinterDesignDay
9,118429003.926708
45,0.0
432,0.0
1508,118429003.92670787
2,1, 1,21, 0,21, 0.00,60.00,WinterDesignDay
9,118465003.926708
45,0.0
432,0.0
1508,118465003.92670787
2,1, 1,21, 0,22, 0.00,60.00,WinterDesignDay
9,118501003.926708
45,0.0
432,0.0
1508,118501003.92670787
2,1, 1,21, 0,23, 0.00,60.00,WinterDesignDay
9,118501003.926708
45,0.0
432,0.0
1508,118501003.92670787
2,1, 1,21, 0,24, 0.00,60.00,WinterDesignDay
9,118501003.926708
45,0.0
432,0.0
1508,118501003.92670787
1,ATLANTA-HARTSFIELD.JACKSON.INTL.AP_GA_USA ANN CLG .4% CONDNS DB=>MWB,  33.63, -84.43,  -5.00, 308.00
2,1, 7,21, 0, 1, 0.00,60.00,SummerDesignDay
9,523760640.6234784
45,152517470.7542746
432,224813060.55296675
1508,523760640.6234784
2,1, 7,21, 0, 2, 0.00,60.00,SummerDesignDay
9,523820640.6234784
45,152517470.7542746
432,224813060.55296675
1508,523820640.6234784
2,1, 7,21, 0, 3, 0.00,60.00,SummerDesignDay
9,523910640.6234784
45,152517470.7542746
432,224813060.55296675
1508,523910640.6234784
2,1, 7,21, 0, 4, 0.00,60.00,SummerDesignDay
9,524036640.6234784
45,152517470.7542746
432,224813060.55296675
1508,524036640.6234784
2,1, 7,21, 0, 5, 0.00,60.00,SummerDesignDay
9,524048640.6234784
45,152517470.7542746
432,224813060.55296675
1508,524048640.6234784
2,1, 7,21, 0, 6, 0.00,60.00,SummerDesignDay
9,521844236.3818794
45,152399851.51267544
432,224813060.55296675
1508,521844236.3818794
2,1, 7,21, 0, 7, 0.00,60.00,SummerDesignDay
9,491273199.54922
45,129457169.68001552
432,224813060.55296675
1508,491273199.5492201
2,1, 7,21, 0, 8, 0.00,60.00,SummerDesignDay
9,482114337.952093
45,120340308.08288898
432,224813060.55296675
1508,482114337.95209297
2,1, 7,21, 0, 9, 0.00,60.00,SummerDesignDay
9,474814278.4997982
45,119991185.40467149
432,224813060.55296675
1508,474814278.4997982
2,1, 7,21, 0,10, 0.00,60.00,SummerDesignDay
9,463301205.89002946
45,119991185.40467149
432,224813060.55296675
1508,463301205.89002946
2,1, 7,21, 0,11, 0.00,60.00,SummerDesignDay
9,463301205.89002946
45,119991185.40467149
432,224813060.55296675
1508,463301205.89002946
2,1, 7,21, 0,12, 0.00,60.00,SummerDesignDay
9,463301205.89002946
45,119991185.40467149
432,224813060.55296675
1508,463301205.89002946
2,1, 7,21, 0,13, 0.00,60.00,SummerDesignDay
9,463301205.89002946
45,119991185.40467149
432,224813060.55296675
1508,463301205.89002946
2,1, 7,21, 0,14, 0.00,60.00,SummerDesignDay
9,463301205.89002946
45,119991185.40467149
432,224813060.55296675
1508,463301205.89002946
2,1, 7,21, 0,15, 0.00,60.00,SummerDesignDay
9,463301205.89002946
45,119991185.40467149
432,224813060.55296675
1508,463301205.89002946
2,1, 7,21, 0,16, 0.00,60.00,SummerDesignDay
9,463319205.89002946
45,119991185.40467149
432,224813060.55296675
1508,463319205.89002946
2,1, 7,21, 0,17, 0.00,60.00,SummerDesignDay
9,463301205.89002946
45,119991185.40467149
432,224813060.55296675
1508,463301205.89002946
2,1, 7,21, 0,18, 0.00,60.00,SummerDesignDay
9,463335461.65843179
45,120025441.17307365
432,224813060.55296675
1508,463335461.65843179
2,1, 7,21, 0,19, 0.00,60.00,SummerDesignDay
9,465578167.01781538
45,122268146.53245703
432,224813060.55296675
1508,465578167.01781538
2,1, 7,21, 0,20, 0.00,60.00,SummerDesignDay
9,493420102.3737012
45,146615183.8883431
432,224813060.55296675
1508,493420102.3737022
2,1, 7,21, 0,21, 0.00,60.00,SummerDesignDay
9,506864011.2396321
45,152517470.7542746
432,224813060.55296675
1508,506864011.23963388
2,1, 7,21, 0,22, 0.00,60.00,SummerDesignDay
9,506864011.2396321
45,152517470.7542746
432,224813060.55296675
1508,506864011.23963388
2,1, 7,21, 0,23, 0.00,60.00,SummerDesignDay
9,525310020.6234784
45,152517470.7542746
432,224813060.55296675
1508,525310020.6234784
2,1, 7,21, 0,24, 0.00,60.00,SummerDesignDay
9,526018020.6234784
45,152517470.7542746
432,224813060.55296675
1508,526018020.6234784
1,RUNPERIOD 1,  33.63, -84.43,  -5.00, 308.00
2,1, 7, 1, 0, 1, 0.00,60.00,Sunday
9,57869388.912013288
45,7625873.53771374
432,33399901.50135806
1508,57869388.912013288
2,1, 7, 1, 0, 2, 0.00,60.00,Sunday
9,60906286.68173546
45,7625873.53771374
432,33399901.50135806
1508,60906286.68173546
2,1, 7, 1, 0, 3, 0.00,60.00,Sunday
9,63327586.20778593
45,7625873.53771374
432,33399901.50135806
1508,63327586.20778593
2,1, 7, 1, 0, 4, 0.00,60.00,Sunday
9,55132928.77057817
45,7625873.53771374
432,33399901.50135806
1508,55132928.77057817
2,1, 7, 1, 0, 5, 0.00,60.00,Sunday
9,58181826.54030031
45,7625873.53771374
432,33399901.50135806
1508,58181826.54030031
2,1, 7, 1, 0, 6, 0.00,60.00,Sunday
9,57613347.99823403
45,7413329.546520042
432,33399901.50135806
1508,57613347.99823403
2,1, 7, 1, 0, 7, 0.00,60.00,Sunday
9,81983412.09344036
45,5390491.487484721
432,41385398.908734139
1508,81983412.09344036
2,1, 7, 1, 0, 8, 0.00,60.00,Sunday
9,83434975.51584557
45,5204671.525274598
432,41385398.908734139
1508,83434975.51584557
2,1, 7, 1, 0, 9, 0.00,60.00,Sunday
9,84383457.84570308
45,5173573.547439724
432,41385398.908734139
1508,84383457.84570308
2,1, 7, 1, 0,10, 0.00,60.00,Sunday
9,84875457.84570308
45,5173573.547439724
432,41385398.908734139
1508,84875457.84570308
2,1, 7, 1, 0,11, 0.00,60.00,Sunday
9,84875457.84570308
45,5173573.547439724
432,41385398.908734139
1508,84875457.84570308
2,1, 7, 1, 0,12, 0.00,60.00,Sunday
9,84905457.84570308
45,5173573.547439724
432,41385398.908734139
1508,84905457.84570308
2,1, 7, 1, 0,13, 0.00,60.00,Sunday
9,85001457.84570308
45,5173573.547439724
432,41385398.908734139
1508,85001457.84570308
2,1, 7, 1, 0,14, 0.00,60.00,Sunday
9,84785457.84570308
45,5173573.547439724
432,41385398.908734139
1508,84785457.84570308
2,1, 7, 1, 0,15, 0.00,60.00,Sunday
9,84845457.84570308
45,5173573.547439724
432,41385398.908734139
1508,84845457.84570308
2,1, 7, 1, 0,16, 0.00,60.00,Sunday
9,84893994.92981293
45,5174110.6315495599
432,41385398.908734139
1508,84893994.92981293
2,1, 7, 1, 0,17, 0.00,60.00,Sunday
9,84650967.62507689
45,5231083.3268135399
432,41385398.908734139
1508,84650967.62507689
2,1, 7, 1, 0,18, 0.00,60.00,Sunday
9,84018442.86259112
45,5282558.564327782
432,41385398.908734139
1508,84018442.86259112
2,1, 7, 1, 0,19, 0.00,60.00,Sunday
9,75767803.12597135
45,6361416.235084032
432,33399901.50135806
1508,75767803.12597135
2,1, 7, 1, 0,20, 0.00,60.00,Sunday
9,65369271.23588248
45,7515599.885422203
432,33399901.50135806
1508,65369271.23588249
2,1, 7, 1, 0,21, 0.00,60.00,Sunday
9,60236701.745264727
45,7625873.53771374
432,33399901.50135806
1508,60236701.74526471
2,1, 7, 1, 0,22, 0.00,60.00,Sunday
9,65330158.117960508
45,7625873.53771374
432,33399901.50135806
1508,65330158.117960508
2,1, 7, 1, 0,23, 0.00,60.00,Sunday
9,67300229.86187777
45,7625873.53771374
432,33399901.50135806
1508,67300229.86187776
2,1, 7, 1, 0,24, 0.00,60.00,Sunday
9,58305907.014249797
45,7625873.53771374
432,33399901.50135806
1508,58305907.01424979
2,2, 7, 2, 0, 1, 0.00,60.00,Monday
9,84901615.88936383
45,7625873.53771374
432,44533202.00181081
1508,84901615.88936383
2,2, 7, 2, 0, 2, 0.00,60.00,Monday
9,69447917.1945991
45,7625873.53771374
432,44533202.00181081
1508,69447917.1945991
2,2, 7, 2, 0, 3, 0.00,60.00,Monday
9,69229546.73306065
45,7625873.53771374
432,44533202.00181081
1508,69229546.73306065
2,2, 7, 2, 0, 4, 0.00,60.00,Monday
9,69669564.66904
45,7625873.53771374
432,44533202.00181081
1508,69669564.66903998
2,2, 7, 2, 0, 5, 0.00,60.00,Monday
9,70024002.29732703
45,7625873.53771374
432,44533202.00181081
1508,70024002.29732701
2,2, 7, 2, 0, 6, 0.00,60.00,Monday
9,76914360.97647591
45,15251747.07542748
432,44533202.00181081
1508,76914360.97647591
2,2, 7, 2, 0, 7, 0.00,60.00,Monday
9,100929675.62798909
45,12081689.219203884
432,55180531.87831209
1508,100929675.62798901
2,2, 7, 2, 0, 8, 0.00,60.00,Monday
9,261654798.9196053
45,31130404.104440474
432,95796493.41677362
1508,261654798.91960529
2,2, 7, 2, 0, 9, 0.00,60.00,Monday
9,434210956.92932119
45,93124323.85391505
432,204227663.7591696
1508,434210956.92932119
2,2, 7, 2, 0,10, 0.00,60.00,Monday
9,404051099.7864642
45,93124323.85391505
432,174055806.61631225
1508,404051099.7864642
2,2, 7, 2, 0,11, 0.00,60.00,Monday
9,397082363.5227287
45,93124323.85391505
432,167093070.3525762
1508,397082363.5227287
2,2, 7, 2, 0,12, 0.00,60.00,Monday
9,403925099.7864642
45,93124323.85391505
432,174055806.61631225
1508,403925099.7864642
2,2, 7, 2, 0,13, 0.00,60.00,Monday
9,406060140.02757349
45,93124323.85391505
432,177667514.30607493
1508,406060140.0275735
2,2, 7, 2, 0,14, 0.00,60.00,Monday
9,391479370.6223989
45,93124323.85391505
432,179858086.83609239
1508,391479370.6223989
2,2, 7, 2, 0,15, 0.00,60.00,Monday
9,378714354.13888308
45,93124323.85391505
432,167093070.3525762
1508,378714354.13888308
2,2, 7, 2, 0,16, 0.00,60.00,Monday
9,378714354.13888308
45,93124323.85391505
432,167093070.3525762
1508,378714354.13888308
2,2, 7, 2, 0,17, 0.00,60.00,Monday
9,389158458.5344866
45,93124323.85391505
432,177537174.74818046
1508,389158458.5344866
2,2, 7, 2, 0,18, 0.00,60.00,Monday
9,313571130.00054576
45,51749162.5771431
432,140923939.57316477
1508,313571130.00054576
2,2, 7, 2, 0,19, 0.00,60.00,Monday
9,237561588.5145324
45,31518614.792510638
432,69106004.40578471
1508,237561588.5145324
2,2, 7, 2, 0,20, 0.00,60.00,Monday
9,237223101.0327301
45,37382529.66235644
432,59822356.054136309
1508,237223101.0327301
2,2, 7, 2, 0,21, 0.00,60.00,Monday
9,235299789.26610593
45,26303943.895732464
432,59822356.054136309
1508,235299789.26610593
2,2, 7, 2, 0,22, 0.00,60.00,Monday
9,118433273.86969725
45,26303943.895732464
432,55180531.87831209
1508,118433273.86969725
2,2, 7, 2, 0,23, 0.00,60.00,Monday
9,104945923.95815075
45,13151971.947866232
432,55180531.87831209
1508,104945923.95815075
2,2, 7, 2, 0,24, 0.00,60.00,Monday
9,92040629.30382961
45,6575985.973933116
432,55180531.87831209
1508,92040629.30382961
End of Data
 Number of Records Written=         384
