Program Version,EnergyPlus, Version 9.4.0-Unknown (No OpenGL), YMD=2021.06.08 18:07
1,5,Environment Title[],Latitude[deg],Longitude[deg],Time Zone[],Elevation[m]
2,8,Day of Simulation[],Month[],Day of Month[],DST Indicator[1=yes 0=no],Hour[],StartMinute[],EndMinute[],DayType
3,5,Cumulative Day of Simulation[],Month[],Day of Month[],DST Indicator[1=yes 0=no],DayType  ! When Daily Report Variables Requested
4,2,Cumulative Days of Simulation[],Month[]  ! When Monthly Report Variables Requested
5,1,Cumulative Days of Simulation[] ! When Run Period Report Variables Requested
6,1,Calendar Year of Simulation[] ! When Annual Report Variables Requested
7,1,Environment,Site Outdoor Air Drybulb Temperature [C] !Hourly
8,7,Environment,Site Daylight Saving Time Status [] !Daily [Value,Min,Hour,Minute,Max,Hour,Minute]
9,7,Environment,Site Day Type Index [] !Daily [Value,Min,Hour,Minute,Max,Hour,Minute]
47,1,ZONE ONE,Zone Total Internal Latent Gain Energy [J] !Hourly
48,9,TEST 352A,Other Equipment Total Heating Energy [J] !Monthly [Value,Min,Day,Hour,Minute,Max,Day,Hour,Minute]
49,9,ZONE ONE,Zone Other Equipment Total Heating Energy [J] !Monthly [Value,Min,Day,Hour,Minute,Max,Day,Hour,Minute]
50,9,TEST 352 MINUS,Other Equipment Total Heating Energy [J] !Monthly [Value,Min,Day,Hour,Minute,Max,Day,Hour,Minute]
51,7,ZN001:WALL001,Surface Inside Face Temperature [C] !Daily [Value,Min,Hour,Minute,Max,Hour,Minute]
52,7,ZN001:WALL001,Surface Outside Face Temperature [C] !Daily [Value,Min,Hour,Minute,Max,Hour,Minute]
53,7,ZN001:WALL001,Surface Inside Face Convection Heat Transfer Coefficient [W/m2-K] !Daily [Value,Min,Hour,Minute,Max,Hour,Minute]
54,7,ZN001:WALL001,Surface Outside Face Convection Heat Transfer Coefficient [W/m2-K] !Daily [Value,Min,Hour,Minute,Max,Hour,Minute]
55,7,ZN001:WALL002,Surface Inside Face Temperature [C] !Daily [Value,Min,Hour,Minute,Max,Hour,Minute]
56,7,ZN001:WALL002,Surface Outside Face Temperature [C] !Daily [Value,Min,Hour,Minute,Max,Hour,Minute]
57,7,ZN001:WALL002,Surface Inside Face Convection Heat Transfer Coefficient [W/m2-K] !Daily [Value,Min,Hour,Minute,Max,Hour,Minute]
58,7,ZN001:WALL002,Surface Outside Face Convection Heat Transfer Coefficient [W/m2-K] !Daily [Value,Min,Hour,Minute,Max,Hour,Minute]
59,7,ZN001:WALL003,Surface Inside Face Temperature [C] !Daily [Value,Min,Hour,Minute,Max,Hour,Minute]
60,7,ZN001:WALL003,Surface Outside Face Temperature [C] !Daily [Value,Min,Hour,Minute,Max,Hour,Minute]
61,7,ZN001:WALL003,Surface Inside Face Convection Heat Transfer Coefficient [W/m2-K] !Daily [Value,Min,Hour,Minute,Max,Hour,Minute]
62,7,ZN001:WALL003,Surface Outside Face Convection Heat Transfer Coefficient [W/m2-K] !Daily [Value,Min,Hour,Minute,Max,Hour,Minute]
63,7,ZN001:WALL004,Surface Inside Face Temperature [C] !Daily [Value,Min,Hour,Minute,Max,Hour,Minute]
64,7,ZN001:WALL004,Surface Outside Face Temperature [C] !Daily [Value,Min,Hour,Minute,Max,Hour,Minute]
65,7,ZN001:WALL004,Surface Inside Face Convection Heat Transfer Coefficient [W/m2-K] !Daily [Value,Min,Hour,Minute,Max,Hour,Minute]
66,7,ZN001:WALL004,Surface Outside Face Convection Heat Transfer Coefficient [W/m2-K] !Daily [Value,Min,Hour,Minute,Max,Hour,Minute]
67,7,ZN001:FLR001,Surface Inside Face Temperature [C] !Daily [Value,Min,Hour,Minute,Max,Hour,Minute]
68,7,ZN001:FLR001,Surface Outside Face Temperature [C] !Daily [Value,Min,Hour,Minute,Max,Hour,Minute]
69,7,ZN001:FLR001,Surface Inside Face Convection Heat Transfer Coefficient [W/m2-K] !Daily [Value,Min,Hour,Minute,Max,Hour,Minute]
70,7,ZN001:ROOF001,Surface Inside Face Temperature [C] !Daily [Value,Min,Hour,Minute,Max,Hour,Minute]
71,7,ZN001:ROOF001,Surface Outside Face Temperature [C] !Daily [Value,Min,Hour,Minute,Max,Hour,Minute]
72,7,ZN001:ROOF001,Surface Inside Face Convection Heat Transfer Coefficient [W/m2-K] !Daily [Value,Min,Hour,Minute,Max,Hour,Minute]
73,7,ZN001:ROOF001,Surface Outside Face Convection Heat Transfer Coefficient [W/m2-K] !Daily [Value,Min,Hour,Minute,Max,Hour,Minute]
74,1,ZONE ONE,Zone Mean Radiant Temperature [C] !Hourly
75,1,ZONE ONE,Zone Mean Air Temperature [C] !Hourly
76,1,ZONE ONE,Zone Air Heat Balance Surface Convection Rate [W] !Hourly
77,1,ZONE ONE,Zone Air Heat Balance Air Energy Storage Rate [W] !Hourly
End of Data Dictionary
1,DENVER CENTENNIAL  GOLDEN   N ANN HTG 99% CONDNS DB,  39.74,-105.18,  -7.00,1829.00
2,1,12,21, 0, 1, 0.00,60.00,WinterDesignDay
7,-15.5
47,0.0
74,-18.20864537828613
75,-18.21135382055015
76,-0.026934551630740434
77,-0.026988224921616786
2,1,12,21, 0, 2, 0.00,60.00,WinterDesignDay
7,-15.5
47,0.0
74,-18.208728721272423
75,-18.211435040051027
76,-0.026509146590848244
77,-0.026561973362268136
2,1,12,21, 0, 3, 0.00,60.00,WinterDesignDay
7,-15.5
47,0.0
74,-18.20881074670443
75,-18.21151497672882
76,-0.02609045072793803
77,-0.02614244428676895
2,1,12,21, 0, 4, 0.00,60.00,WinterDesignDay
7,-15.5
47,0.0
74,-18.208891475403467
75,-18.211593650816626
76,-0.025678358577394979
77,-0.02572953202365389
2,1,12,21, 0, 5, 0.00,60.00,WinterDesignDay
7,-15.5
47,0.0
74,-18.20897092786211
75,-18.211671082229399
76,-0.025272766328701125
77,-0.025323132555020536
2,1,12,21, 0, 6, 0.00,60.00,WinterDesignDay
7,-15.5
47,0.0
74,-18.209049124249327
75,-18.211747290569023
76,-0.024873571771915516
77,-0.02492314347783849
2,1,12,21, 0, 7, 0.00,60.00,WinterDesignDay
7,-15.5
47,0.0
74,-18.209126084415574
75,-18.21182229512907
76,-0.02448067430680334
77,-0.024529463983054935
2,1,12,21, 0, 8, 0.00,60.00,WinterDesignDay
7,-15.5
47,0.0
74,-18.209201827897876
75,-18.211896114899724
76,-0.024093974902644534
77,-0.024141994850547578
2,1,12,21, 0, 9, 0.00,60.00,WinterDesignDay
7,-15.5
47,0.0
74,-18.209276373924703
75,-18.21196876857245
76,-0.023713376064010917
77,-0.02376063839692881
2,1,12,21, 0,10, 0.00,60.00,WinterDesignDay
7,-15.5
47,0.0
74,-18.20934974142089
75,-18.212040274544689
76,-0.023338781834973955
77,-0.023385298464547824
2,1,12,21, 0,11, 0.00,60.00,WinterDesignDay
7,-15.5
47,0.0
74,-18.209421949012353
75,-18.21211065092444
76,-0.022970097736641827
77,-0.02301588040647095
2,1,12,21, 0,12, 0.00,60.00,WinterDesignDay
7,-15.5
47,0.0
74,-18.20949301503088
75,-18.212179915534788
76,-0.022607230785623768
77,-0.022652291040373704
2,1,12,21, 0,13, 0.00,60.00,WinterDesignDay
7,-15.5
47,0.0
74,-18.209562957518715
75,-18.21224808591835
76,-0.022250089443335953
77,-0.022294438658305106
2,1,12,21, 0,14, 0.00,60.00,WinterDesignDay
7,-15.5
47,0.0
74,-18.20963179423314
75,-18.21231517934165
76,-0.02189858360621022
77,-0.021942232963676538
2,1,12,21, 0,15, 0.00,60.00,WinterDesignDay
7,-15.5
47,0.0
74,-18.20969954265098
75,-18.212381212799476
76,-0.02155262457891105
77,-0.021595585098762569
2,1,12,21, 0,16, 0.00,60.00,WinterDesignDay
7,-15.5
47,0.0
74,-18.20976621997301
75,-18.2124462030191
76,-0.021212125046747855
77,-0.02125440757255461
2,1,12,21, 0,17, 0.00,60.00,WinterDesignDay
7,-15.5
47,0.0
74,-18.209831843128315
75,-18.212510166464456
76,-0.02087699907309659
77,-0.020918614275899827
2,1,12,21, 0,18, 0.00,60.00,WinterDesignDay
7,-15.5
47,0.0
74,-18.209896428778579
75,-18.212573119340303
76,-0.020547162052852565
77,-0.020588120447236098
2,1,12,21, 0,19, 0.00,60.00,WinterDesignDay
7,-15.5
47,0.0
74,-18.209959993322284
75,-18.212635077596226
76,-0.020222530717943333
77,-0.020262842643043637
2,1,12,21, 0,20, 0.00,60.00,WinterDesignDay
7,-15.5
47,0.0
74,-18.210022552898886
75,-18.212696056930669
76,-0.01990302309713643
77,-0.01994269872785921
2,1,12,21, 0,21, 0.00,60.00,WinterDesignDay
7,-15.5
47,0.0
74,-18.2100841233929
75,-18.21275607279486
76,-0.019588558501915544
77,-0.019627607868575468
2,1,12,21, 0,22, 0.00,60.00,WinterDesignDay
7,-15.5
47,0.0
74,-18.21014472043791
75,-18.21281514039671
76,-0.01927905751040182
77,-0.01931749047830559
2,1,12,21, 0,23, 0.00,60.00,WinterDesignDay
7,-15.5
47,0.0
74,-18.210204359420524
75,-18.21287327470455
76,-0.018974441952941846
77,-0.019012268220061198
2,1,12,21, 0,24, 0.00,60.00,WinterDesignDay
7,-15.5
47,0.0
74,-18.210263055484277
75,-18.212930490450967
76,-0.018674634865926355
77,-0.018711863999670319
3,1,12,21, 0,WinterDesignDay
51,-18.145037455917465,-18.14575759029835,24,60,-18.14422169658082, 1,15
52,-17.463547341715399,-17.463575491452504,24,60,-17.46351545411756, 1,15
53,0.5323350994249628,0.5322044383507331, 1,15,0.5324505718144811,24,60
54,7.151445020273765,7.151444105740373,24,60,7.1514460562650579, 1,15
55,-18.145037455917465,-18.14575759029835,24,60,-18.14422169658082, 1,15
56,-17.463547341715399,-17.463575491452504,24,60,-17.46351545411756, 1,15
57,0.5323350994249628,0.5322044383507331, 1,15,0.5324505718144811,24,60
58,7.151445020273765,7.151444105740373,24,60,7.1514460562650579, 1,15
59,-18.14081310878113,-18.141533297832173,24,60,-18.1399972876771, 1,15
60,-17.417318742231786,-17.417346256823764,24,60,-17.417287574116789, 1,15
61,0.5432718403104547,0.5431465456770881, 1,15,0.5433825719469954,24,60
62,7.416426177953677,7.416425105689358,24,60,7.416427392620845, 1,15
63,-18.14081310878113,-18.141533297832173,24,60,-18.1399972876771, 1,15
64,-17.417318742231786,-17.417346256823764,24,60,-17.417287574116789, 1,15
65,0.5432718403104547,0.5431465456770881, 1,15,0.5433825719469954,24,60
66,7.416426177953677,7.416425105689358,24,60,7.416427392620845, 1,15
67,-18.21612362378681,-18.217000454497847,24,60,-18.215130321690148, 1,15
68,-18.216103896431233,-18.216984228113924,24,60,-18.215106628362439, 1,15
69,0.11993953386970445,0.11861978633788416, 1,15,0.12108790225499726,24,60
70,-18.282770431623324,-18.283536572608026,24,60,-18.281902554258715, 1,15
71,-20.30578027078142,-20.3057917068198,24,60,-20.30576731613179, 1,15
72,0.6281834676311566,0.6281748962829159, 1,15,0.6281908452107734,24,60
73,8.618881115572555,8.61888081536602,24,60,8.618881455644573, 1,15
8,0.0,0, 1,15,0, 1,15
9,10.,10, 1,15,10, 1,15
4,1,12
48,30412800.0,316800.0,21, 1,15,316800.0,21, 1,15
49,0.0,0.0,21, 1,15,0.0,21, 1,15
50,-30412800.0,-316800.0,21, 1,15,-316800.0,21, 1,15
1,DENVER CENTENNIAL  GOLDEN   N ANN CLG 1% CONDNS DB=>MWB,  39.74,-105.18,  -7.00,1829.00
2,1, 7,21, 0, 1, 0.00,60.00,SummerDesignDay
7,18.966
47,0.0
74,28.93733843510644
75,29.078607531641464
76,-80.27037199494544
77,-80.21468963873522
2,1, 7,21, 0, 2, 0.00,60.00,SummerDesignDay
7,18.244
47,0.0
74,28.651440680991035
75,28.79264201048543
76,-78.19921730558375
77,-78.63671117051729
2,1, 7,21, 0, 3, 0.00,60.00,SummerDesignDay
7,17.731
47,0.0
74,28.37379870298346
75,28.51480031501082
76,-76.53412667638236
77,-76.74055282191464
2,1, 7,21, 0, 4, 0.00,60.00,SummerDesignDay
7,17.275000000000003
47,0.0
74,28.097412740690524
75,28.23972396321396
76,-76.95920754067974
77,-76.85998101090962
2,1, 7,21, 0, 5, 0.00,60.00,SummerDesignDay
7,16.913999999999999
47,0.0
74,27.824289181507429
75,27.965695005605928
76,-75.45583832802665
77,-75.77564904920276
2,1, 7,21, 0, 6, 0.00,60.00,SummerDesignDay
7,16.990000000000003
47,0.0
74,27.884422707483869
75,27.86908350047655
76,51.672673522781327
77,27.556638306236179
2,1, 7,21, 0, 7, 0.00,60.00,SummerDesignDay
7,17.769
47,0.0
74,28.293311055443515
75,28.196468354995458
76,97.95419158850774
77,101.6165940541195
2,1, 7,21, 0, 8, 0.00,60.00,SummerDesignDay
7,19.783
47,0.0
74,28.660173838912944
75,28.553245131123398
76,109.11437111790623
77,104.62109868444539
2,1, 7,21, 0, 9, 0.00,60.00,SummerDesignDay
7,22.557
47,0.0
74,29.137344914642364
75,29.00874210641806
76,141.19848333509487
77,138.3500790847138
2,1, 7,21, 0,10, 0.00,60.00,SummerDesignDay
7,25.255000000000004
47,0.0
74,29.639579008427924
75,29.5119775936287
76,133.74727069488928
77,135.955652511402
2,1, 7,21, 0,11, 0.00,60.00,SummerDesignDay
7,27.649
47,0.0
74,30.07367658175338
75,29.96118794179617
76,114.47036234406892
77,117.11000552593389
2,1, 7,21, 0,12, 0.00,60.00,SummerDesignDay
7,29.454
47,0.0
74,30.40688164370541
75,30.32288647930954
76,84.50977087056089
77,88.6152718294332
2,1, 7,21, 0,13, 0.00,60.00,SummerDesignDay
7,30.784
47,0.0
74,30.759937847136976
75,30.645376401900305
76,107.59124139662052
77,100.62321847209214
2,1, 7,21, 0,14, 0.00,60.00,SummerDesignDay
7,31.715
47,0.0
74,31.16730471425747
75,31.06913382818138
76,115.30206911138811
77,117.79607565910402
2,1, 7,21, 0,15, 0.00,60.00,SummerDesignDay
7,32.0
47,0.0
74,31.46915491506992
75,31.43270298874782
76,81.76283029147896
77,86.91335719011069
2,1, 7,21, 0,16, 0.00,60.00,SummerDesignDay
7,31.43
47,0.0
74,31.597090985010607
75,31.64572007587239
76,33.806320339045829
77,40.34050196908321
2,1, 7,21, 0,17, 0.00,60.00,SummerDesignDay
7,30.328
47,0.0
74,31.566221724901337
75,31.69801882792385
76,0.3229716043495716
77,2.9220660315243678
2,1, 7,21, 0,18, 0.00,60.00,SummerDesignDay
7,28.922
47,0.0
74,31.42715086958454
75,31.625257568740684
76,-52.46889363983141
77,-41.92580559977741
2,1, 7,21, 0,19, 0.00,60.00,SummerDesignDay
7,26.927
47,0.0
74,30.9192502859333
75,31.213699276999486
76,-187.20454782632363
77,-166.83029412593033
2,1, 7,21, 0,20, 0.00,60.00,SummerDesignDay
7,25.027
47,0.0
74,30.355967703580967
75,30.522147613665554
76,-138.18213078776254
77,-161.20568503664428
2,1, 7,21, 0,21, 0.00,60.00,SummerDesignDay
7,23.544999999999999
47,0.0
74,30.06203543332741
75,30.185397702613778
76,-75.09659344238375
77,-75.03308615702986
2,1, 7,21, 0,22, 0.00,60.00,SummerDesignDay
7,22.177
47,0.0
74,29.790208342088726
75,29.91843196182176
76,-75.40064462064585
77,-74.89196091695888
2,1, 7,21, 0,23, 0.00,60.00,SummerDesignDay
7,20.999000000000004
47,0.0
74,29.51315916903576
75,29.64477859624185
76,-75.74915954995548
77,-75.90683088878538
2,1, 7,21, 0,24, 0.00,60.00,SummerDesignDay
7,19.935000000000004
47,0.0
74,29.22978624578804
75,29.367260541397664
76,-78.75929291509375
77,-78.26939145819932
3,1, 7,21, 0,SummerDesignDay
51,29.65746920529736,27.10314822374908, 6,15,32.13041994141328,15,30
52,28.15441102834149,15.435954880376626, 5,60,49.020040972637307,13,45
53,1.069637592911993,0.22820553642143524,17,30,1.3331414999775986,13,45
54,9.789675999433844,9.648569272292962,10,15,10.219994633751245, 6,60
55,29.786822370360864,27.11426329554781, 5,60,31.728579127355088,16,30
56,30.43637984026446,15.589301285290008, 5,60,53.375055423313, 9,30
57,1.0705736125297272,0.3210384112488669,17,15,1.4653694153731749, 9,30
58,11.647855311012384,11.426186741540568, 6,60,11.99386587408576,19,45
59,29.529076259913038,27.114247302664777, 5,60,31.72857912735507,16,30
60,25.76207679844448,15.58902497479108, 5,60,35.85337230592744,14,60
61,0.8660915588917124,0.1,19,15,1.1903377073528299, 6,15
62,11.658904740375837,11.47396268151557,19,15,12.222869167418836, 6,30
63,29.770159012109266,27.11029033049417, 6,15,33.17914009351612,16,60
64,30.282246185759193,15.588754852406208, 5,60,61.65828403375874,16,60
65,1.0793746460955789,0.25207562676618908,10,30,1.4969509474969543,17,15
66,11.65507542332576,11.426584823928663,14,45,12.183437957355958, 6,60
67,29.738212853593866,28.46960140185364, 7,45,31.012309174612019,19,15
68,29.738194019442504,28.46960140185364, 7,60,31.012309174612019,19,30
69,0.9731742493506316,0.14407469354647363, 8,45,1.4079584920489552, 6,15
70,29.816987455750437,27.51281597584088, 6,15,31.960526777542037,16,15
71,32.550480885815627,13.078280653529769, 5,60,61.48143628475624,13,45
72,0.7936812447801351,0.2638308953354479, 7,60,1.131591226500478,20,15
73,13.388257133771149,13.087110166933075, 8,60,13.946429449430886, 6,60
8,0.0,0, 1,15,0, 1,15
9,9.,9, 1,15,9, 1,15
4,1, 7
48,30412800.0,316800.0,21, 1,15,316800.0,21, 1,15
49,0.0,0.0,21, 1,15,0.0,21, 1,15
50,-30412800.0,-316800.0,21, 1,15,-316800.0,21, 1,15
1,RUN PERIOD 1,  39.74,-105.18,  -7.00,1829.00
2,1, 1, 1, 0, 1, 0.00,60.00,Tuesday
7,-4.5
47,0.0
74,-0.69492521176933
75,-0.6400018617821057
76,-6.00785252335162
77,-8.213796406352277
2,1, 1, 1, 0, 2, 0.00,60.00,Tuesday
7,-3.0
47,0.0
74,-0.7002971177149409
75,-0.6632275740549476
76,-0.08301973807049557
77,-4.398376920020288
2,1, 1, 1, 0, 3, 0.00,60.00,Tuesday
7,-3.625
47,0.0
74,-0.8049480462641966
75,-0.7130236483512943
76,-44.94031415919764
77,-35.156825229976579
2,1, 1, 1, 0, 4, 0.00,60.00,Tuesday
7,-2.75
47,0.0
74,-0.8211628789929024
75,-0.8055730340997661
76,10.205648214511865
77,-3.1962489167527154
2,1, 1, 1, 0, 5, 0.00,60.00,Tuesday
7,-2.0
47,0.0
74,-0.7527087440930274
75,-0.7424862174123376
76,12.170719335934877
77,16.879126021017365
2,1, 1, 1, 0, 6, 0.00,60.00,Tuesday
7,-1.375
47,0.0
74,-0.7774161602771206
75,-0.7384796575800592
76,-12.082759549156203
77,-8.199727471337699
2,1, 1, 1, 0, 7, 0.00,60.00,Tuesday
7,-1.0
47,0.0
74,-0.7726913947533176
75,-0.7674371668842228
76,5.260907211138422
77,-0.3189612961060768
2,1, 1, 1, 0, 8, 0.00,60.00,Tuesday
7,-1.0
47,0.0
74,-0.3578335971739895
75,-0.6006523143479555
76,172.92628076434279
77,125.39618058692678
2,1, 1, 1, 0, 9, 0.00,60.00,Tuesday
7,-0.375
47,0.0
74,0.49852685600183646
75,0.3046174682582111
76,301.29183035651
77,348.993058458024
2,1, 1, 1, 0,10, 0.00,60.00,Tuesday
7,1.25
47,0.0
74,0.4471222998124408
75,0.47432467986173457
76,31.515190202799944
77,-22.41431331734985
2,1, 1, 1, 0,11, 0.00,60.00,Tuesday
7,2.0
47,0.0
74,1.5237850798821784
75,1.3113366952617334
76,346.9879907530523
77,390.6325899039757
2,1, 1, 1, 0,12, 0.00,60.00,Tuesday
7,1.375
47,0.0
74,1.2634757262543608
75,1.5318021540897605
76,-113.35807202154928
77,-93.60887805186667
2,1, 1, 1, 0,13, 0.00,60.00,Tuesday
7,2.25
47,0.0
74,1.1618981276856309
75,1.2447356331598028
76,-28.530632272255706
77,-47.35774289331969
2,1, 1, 1, 0,14, 0.00,60.00,Tuesday
7,2.375
47,0.0
74,1.0339448141853909
75,1.1628441403980463
76,-51.14057939630441
77,-39.518710611202298
2,1, 1, 1, 0,15, 0.00,60.00,Tuesday
7,1.375
47,0.0
74,0.7830534643650826
75,0.9408106232909956
76,-68.85305576904068
77,-72.15259787806896
2,1, 1, 1, 0,16, 0.00,60.00,Tuesday
7,1.0
47,0.0
74,0.7677760317687062
75,0.7973860376861575
76,-9.145960256919852
77,-20.095204729618293
2,1, 1, 1, 0,17, 0.00,60.00,Tuesday
7,0.375
47,0.0
74,0.7198742312746558
75,0.8183162567396275
76,-33.29665528240473
77,-12.639440687399713
2,1, 1, 1, 0,18, 0.00,60.00,Tuesday
7,-0.625
47,0.0
74,0.4682304795235695
75,0.579579815858002
76,-68.55838424511133
77,-78.52560216549748
2,1, 1, 1, 0,19, 0.00,60.00,Tuesday
7,-1.625
47,0.0
74,0.3142108121685726
75,0.3966638061538605
76,-48.60686254536366
77,-49.20497234845664
2,1, 1, 1, 0,20, 0.00,60.00,Tuesday
7,-3.25
47,0.0
74,0.12172217907283252
75,0.22439808173286969
76,-62.2993968727617
77,-59.32405006277989
2,1, 1, 1, 0,21, 0.00,60.00,Tuesday
7,-4.625
47,0.0
74,-0.08892574942306625
75,0.015915247313703815
76,-62.68896507066566
77,-63.860161621290419
2,1, 1, 1, 0,22, 0.00,60.00,Tuesday
7,-5.625
47,0.0
74,-0.2973437190248812
75,-0.1864788263731138
76,-63.80296209143828
77,-63.31024456075245
2,1, 1, 1, 0,23, 0.00,60.00,Tuesday
7,-6.625
47,0.0
74,-0.49868925090452206
75,-0.38827252422808547
76,-60.36752521373526
77,-61.04917183589143
2,1, 1, 1, 0,24, 0.00,60.00,Tuesday
7,-7.0
47,0.0
74,-0.6628370702425513
75,-0.5646450753802738
76,-46.840236651338717
77,-49.17979945801598
3,1, 1, 1, 0,Tuesday
51,0.2586823729828899,-1.1869024866033465, 3,60,4.062076250467287,11,30
52,2.8728644574592598,-7.515357253182171,24,60,43.54411928360483,11,30
53,0.9594432192409265,0.2009724055009862,16,45,1.827809921697132,11,45
54,8.747920017930822,1.493244100825115, 6,60,14.162956628576755,20,60
55,0.14179873453286374,-1.1785108069866957, 3,60,2.942107726476236,11,30
56,1.1235232068592447,-7.421337893007078,24,60,31.269946951871956, 9,30
57,0.876472513234198,0.2759454538282235,17,30,1.6728114653094777, 9,45
58,10.486594968797215,1.4932449232377137, 6,60,19.401296632482976,20,60
59,-0.015914999851169888,-1.1785107146125363, 3,60,1.8986821029984223,11,60
60,-1.241839810471265,-7.421337893007078,24,60,7.714526259011289,11,30
61,0.7835708371607715,0.23002093215287637,12,60,1.144706302978195,11,15
62,10.42169877626774,1.5359680390067943, 6,60,19.401296632482976,20,60
63,0.012285169732379328,-1.1869023796199554, 3,60,1.9399638919550717,11,60
64,-0.8719717204616829,-7.515357253182171,24,60,9.334844945003966,17,30
65,0.8211081493485172,0.2009725245016242,16,45,1.1447045398756342,11,15
66,8.763283262779716,1.5359689952812966, 6,60,14.35440098008998,13,60
67,0.07394222295671868,-0.5996329566787687, 8,15,0.6589318563714474,17,30
68,0.07395579226402381,-0.5996329566787687, 8,30,0.6589318563714474,17,45
69,0.8649585061553369,0.2538326765835234,18,30,1.25712827379164,24,60
70,0.05684788200571387,-1.0375273425899483, 3,60,2.0070732898298409,11,30
71,-1.0185702776716486,-10.540153141113028, 1,60,22.24190369572761,11,30
72,0.7206544338706534,0.17446677037640247,16,60,1.0355313114505179,10,45
73,11.8839122443352,1.2265405956597669, 6,60,22.15544489168398,20,60
8,0.0,0, 1,15,0, 1,15
9,3.,3, 1,15,3, 1,15
2,2, 1, 2, 0, 1, 0.00,60.00,Wednesday
7,-8.25
47,0.0
74,-0.9598905401314433
75,-0.7860659884687563
76,-113.44044159828249
77,-97.11422234988663
2,2, 1, 2, 0, 2, 0.00,60.00,Wednesday
7,-9.625
47,0.0
74,-1.3919198286964934
75,-1.2093082878810416
76,-123.40897356660654
77,-131.04277234491776
2,2, 1, 2, 0, 3, 0.00,60.00,Wednesday
7,-10.0
47,0.0
74,-1.647044810596145
75,-1.5122044627355314
76,-61.51569191201862
77,-69.92762531691035
2,2, 1, 2, 0, 4, 0.00,60.00,Wednesday
7,-10.625
47,0.0
74,-1.8162759794301527
75,-1.6864919322677626
76,-55.378667692314269
77,-53.480425921900238
2,2, 1, 2, 0, 5, 0.00,60.00,Wednesday
7,-11.625
47,0.0
74,-2.0492828938854816
75,-1.8996391034341487
76,-78.65290159540163
77,-75.49774550949364
2,2, 1, 2, 0, 6, 0.00,60.00,Wednesday
7,-13.875
47,0.0
74,-2.4567390123280736
75,-2.245042053349291
76,-142.37177174446607
77,-132.48286172862104
2,2, 1, 2, 0, 7, 0.00,60.00,Wednesday
7,-14.375
47,0.0
74,-2.7894390319850439
75,-2.6326580508550099
76,-76.83448527123416
77,-91.2391066238079
2,2, 1, 2, 0, 8, 0.00,60.00,Wednesday
7,-13.375
47,0.0
74,-2.8137058050162206
75,-2.7584466406283738
76,21.945945718089864
77,1.5985002792043766
2,2, 1, 2, 0, 9, 0.00,60.00,Wednesday
7,-11.75
47,0.0
74,-2.325198988748881
75,-2.437887356718842
76,118.71718992955522
77,128.5287429815644
2,2, 1, 2, 0,10, 0.00,60.00,Wednesday
7,-8.5
47,0.0
74,-2.3823437342622886
75,-2.336282333258134
76,-15.852348474639456
77,-16.69517623699571
2,2, 1, 2, 0,11, 0.00,60.00,Wednesday
7,-6.375
47,0.0
74,-1.8911983436676608
75,-2.176973356589258
76,177.9908001097519
77,133.091794903923
2,2, 1, 2, 0,12, 0.00,60.00,Wednesday
7,-6.0
47,0.0
74,-0.7911573960144364
75,-1.1711437613153335
76,395.6294350608281
77,427.33553425464859
2,2, 1, 2, 0,13, 0.00,60.00,Wednesday
7,-5.375
47,0.0
74,-0.9541956751681371
75,-0.7195076722677334
76,-87.45838064771283
77,-39.658011305462228
2,2, 1, 2, 0,14, 0.00,60.00,Wednesday
7,-5.0
47,0.0
74,-1.1295538525964553
75,-1.1329446393500853
76,47.5748126315838
77,-44.588733743944107
2,2, 1, 2, 0,15, 0.00,60.00,Wednesday
7,-5.625
47,0.0
74,-0.41804556312451759
75,-0.4025525258724684
76,162.94579533133874
77,297.26155243884127
2,2, 1, 2, 0,16, 0.00,60.00,Wednesday
7,-6.625
47,0.0
74,-1.43219499609466
75,-0.8788097534619888
76,-424.3583344422036
77,-387.59207244773196
2,2, 1, 2, 0,17, 0.00,60.00,Wednesday
7,-7.625
47,0.0
74,-1.8355090153071015
75,-1.6232919702356466
76,-174.24417548218538
77,-183.6680828269332
2,2, 1, 2, 0,18, 0.00,60.00,Wednesday
7,-8.0
47,0.0
74,-2.205918511083329
75,-2.0835932869590629
76,-79.78393475467917
77,-101.83197050533046
2,2, 1, 2, 0,19, 0.00,60.00,Wednesday
7,-8.625
47,0.0
74,-2.386606880785542
75,-2.275322583599843
76,-57.17191363718771
77,-54.72766936518815
2,2, 1, 2, 0,20, 0.00,60.00,Wednesday
7,-10.25
47,0.0
74,-2.640711692185742
75,-2.497980867203869
76,-85.5541380930506
77,-81.17837745458329
2,2, 1, 2, 0,21, 0.00,60.00,Wednesday
7,-11.0
47,0.0
74,-2.89843397482044
75,-2.763293482709904
76,-74.71398847569799
77,-77.55252895467967
2,2, 1, 2, 0,22, 0.00,60.00,Wednesday
7,-11.0
47,0.0
74,-3.118092874478701
75,-2.9881796077515427
76,-65.60390275844581
77,-67.05757311384592
2,2, 1, 2, 0,23, 0.00,60.00,Wednesday
7,-11.625
47,0.0
74,-3.3248277393932259
75,-3.193122131319697
76,-65.70231936060286
77,-64.77361335031186
2,2, 1, 2, 0,24, 0.00,60.00,Wednesday
7,-12.0
47,0.0
74,-3.529796177822434
75,-3.4014854492494548
76,-62.14448812362803
77,-63.47593462925851
3,2, 1, 2, 0,Wednesday
51,-2.18613420372631,-4.19028069032242,24,60,2.034341405998933,15,30
52,-4.332474612175613,-16.06480267890344, 6,60,35.50431168774864,15,30
53,1.1529031203384872,0.5149673092611408,17,45,1.7514209530291989,15,15
54,5.980726356648563,0.9428164497467338, 1,60,11.933897851734285,20,60
55,-2.4134288160159724,-4.1904146325726379,24,60,-0.1947354957911327,15,30
56,-7.758615885047486,-16.06480267984139, 6,60,8.67004929171964,12,30
57,1.0837856687377492,0.37347998772896925, 9,15,1.3299095494367679, 7,15
58,6.1108001481511,0.9924171797440432, 1,60,15.068923798583615,20,60
59,-2.483263875831663,-4.192025133494169,24,60,-0.19473549576184719,15,30
60,-8.712302227235748,-16.09878585947139, 6,60,3.2986487864530118,12,30
61,1.0905588195559768,0.40165884621901745,13,45,1.330893833972461, 7,15
62,5.962705684535661,0.9924171797440432, 1,60,15.068923798583615,20,60
63,-2.3816760705739417,-4.1918903120677319,24,60,1.487648190232193,15,30
64,-7.239916705164376,-16.09878581289547, 6,60,26.22566635593432,15,30
65,1.1013910686608302,0.5022130719361753,17,30,1.5879281892179027,15,45
66,5.748204406218364,0.9428164497467338, 1,60,11.93389785173108,20,60
67,-1.5514135093720712,-2.694591769251207,24,60,-0.09432948858658477, 1,15
68,-1.5239145095436618,-2.645836225244803,24,60,-0.05468778572390506, 1,15
69,1.1711316910858166,0.25968471850667149,12,15,1.5586741347221307, 7,45
70,-2.1676467097999096,-3.8030324767201164,24,60,0.1659272573532206,15,30
71,-8.84434929558325,-18.77888139292245, 6,60,17.288987421180577,12,30
72,0.9697402446711253,0.16586660480677044, 9,45,1.3157885540288986,16,45
73,6.930738374490897,0.5029409963295884,10,60,17.14805286367103,20,60
8,0.0,0, 1,15,0, 1,15
9,4.,4, 1,15,4, 1,15
2,3, 1, 3, 0, 1, 0.00,60.00,Thursday
7,-12.625
47,0.0
74,-3.769207368535921
75,-3.6215026665979375
76,-80.16399697922363
77,-76.64630458727317
2,3, 1, 3, 0, 2, 0.00,60.00,Thursday
7,-13.125
47,0.0
74,-4.0034281812418819
75,-3.866749530947165
76,-67.98647863263531
77,-71.19570372257857
2,3, 1, 3, 0, 3, 0.00,60.00,Thursday
7,-13.45
47,0.0
74,-4.215271800348672
75,-4.077636080404502
76,-67.3494726941997
77,-66.56491413156222
2,3, 1, 3, 0, 4, 0.00,60.00,Thursday
7,-13.85
47,0.0
74,-4.434262855114809
75,-4.295158993662499
76,-68.86468131083925
77,-68.81241254703278
2,3, 1, 3, 0, 5, 0.00,60.00,Thursday
7,-14.0
47,0.0
74,-4.652659544725918
75,-4.513467412153156
76,-68.29931951821067
77,-68.34328498459593
2,3, 1, 3, 0, 6, 0.00,60.00,Thursday
7,-14.0
47,0.0
74,-4.86587954543833
75,-4.728339404779058
76,-66.15034462700658
77,-66.65665131394106
2,3, 1, 3, 0, 7, 0.00,60.00,Thursday
7,-14.0
47,0.0
74,-5.115467288366657
75,-4.959450882074745
76,-83.73376706857023
77,-80.15421370855411
2,3, 1, 3, 0, 8, 0.00,60.00,Thursday
7,-15.875
47,0.0
74,-5.015409047444459
75,-5.066957222444565
76,85.06213281364032
77,44.453517457334047
2,3, 1, 3, 0, 9, 0.00,60.00,Thursday
7,-14.5
47,0.0
74,-3.7000867957309335
75,-4.165886473606991
76,532.1348531650749
77,505.38080564216019
2,3, 1, 3, 0,10, 0.00,60.00,Thursday
7,-11.75
47,0.0
74,-3.1321343301312898
75,-3.0013478135012279
76,95.19591958960314
77,172.76679122530377
2,3, 1, 3, 0,11, 0.00,60.00,Thursday
7,-9.75
47,0.0
74,-3.271832233621908
75,-3.135270862253021
76,-40.77538849749044
77,-70.57421071028067
2,3, 1, 3, 0,12, 0.00,60.00,Thursday
7,-8.375
47,0.0
74,-2.8973488209896689
75,-2.97260130891059
76,122.78913326427908
77,112.23612918133978
2,3, 1, 3, 0,13, 0.00,60.00,Thursday
7,-7.375
47,0.0
74,-2.10341851643826
75,-2.2869469163896589
76,287.0595807831263
77,274.3309512209243
2,3, 1, 3, 0,14, 0.00,60.00,Thursday
7,-7.0625
47,0.0
74,-1.5743127891722686
75,-1.5628247177094184
76,172.71259072035904
77,180.58866032854005
2,3, 1, 3, 0,15, 0.00,60.00,Thursday
7,-7.5375
47,0.0
74,-1.189152888725226
75,-1.0163823257824994
76,130.20582307296707
77,150.02968585184898
2,3, 1, 3, 0,16, 0.00,60.00,Thursday
7,-8.55
47,0.0
74,-1.4373658691930576
75,-0.9961100984743518
76,-162.58691268077957
77,-111.59377108437002
2,3, 1, 3, 0,17, 0.00,60.00,Thursday
7,-9.0
47,0.0
74,-2.6597356093011119
75,-2.0504553427502065
76,-508.06155581834698
77,-509.5617013977916
2,3, 1, 3, 0,18, 0.00,60.00,Thursday
7,-9.0
47,0.0
74,-3.302081270315256
75,-3.1332832266379477
76,-136.64159561903544
77,-187.63504067970914
2,3, 1, 3, 0,19, 0.00,60.00,Thursday
7,-9.0
47,0.0
74,-3.4875728474230689
75,-3.3791197083613957
76,-54.94682907326907
77,-54.521762175120688
2,3, 1, 3, 0,20, 0.00,60.00,Thursday
7,-9.0
47,0.0
74,-3.6263897257236694
75,-3.5301478388730658
76,-41.84467145784329
77,-43.24874130440652
2,3, 1, 3, 0,21, 0.00,60.00,Thursday
7,-8.375
47,0.0
74,-3.6724228637044966
75,-3.6160405538572419
76,-8.367543076964918
77,-13.644825363430526
2,3, 1, 3, 0,22, 0.00,60.00,Thursday
7,-8.625
47,0.0
74,-3.7956322501456
75,-3.6894989071381039
76,-52.73198203609533
77,-42.82273016902508
2,3, 1, 3, 0,23, 0.00,60.00,Thursday
7,-9.0
47,0.0
74,-3.9742727234034507
75,-3.873809104293705
76,-50.39205645726797
77,-54.54915874079724
2,3, 1, 3, 0,24, 0.00,60.00,Thursday
7,-9.0
47,0.0
74,-4.117022980156643
75,-4.019964419598125
76,-44.44149831786748
77,-44.29658581016115
3,3, 1, 3, 0,Thursday
51,-3.1313024424355269,-6.013319577793518, 8,15,1.6117595171362083,15,30
52,2.1140790485471467,-16.138077495714126, 8,15,42.91701939093093,15,30
53,1.2850161922057573,0.6663592769664143,17,45,1.849563292952163,13,45
54,7.0658504020166,4.0032763494022529, 7,60,11.113393939463889,21,60
55,-3.647508580127022,-6.013319577793519, 8,15,-1.0704073527719567, 9,60
56,-5.688330074956582,-16.138077495714126, 8,15,31.740851699995909, 9,60
57,1.1086503217323263,0.3234345476876309,15,15,1.80981151198122, 9,45
58,6.742697638236984,1.569519831830027,16,60,11.238770653409113, 4,60
59,-3.9214510732288678,-6.008651048082492, 8,15,-1.3462414664724556,15,30
60,-9.570433974145738,-16.845734275578339, 8,60,1.3854768600520633,13,60
61,1.0439786618397443,0.3234309482730967,15,15,1.296586709775531,17,30