Program Version,EnergyPlus, Version 9.4.0-998c4b761e, YMD=2021.07.15 13:32
1,5,Environment Title[],Latitude[deg],Longitude[deg],Time Zone[],Elevation[m]
2,8,Day of Simulation[],Month[],Day of Month[],DST Indicator[1=yes 0=no],Hour[],StartMinute[],EndMinute[],DayType
3,5,Cumulative Day of Simulation[],Month[],Day of Month[],DST Indicator[1=yes 0=no],DayType  ! When Daily Report Variables Requested
4,2,Cumulative Days of Simulation[],Month[]  ! When Monthly Report Variables Requested
5,1,Cumulative Days of Simulation[] ! When Run Period Report Variables Requested
6,1,Calendar Year of Simulation[] ! When Annual Report Variables Requested
769,1,PERIMETER_TOP_ZN_1,Zone Mean Air Temperature [C] !Hourly
2050,1,PERI1_TOP_LOTEMP,Zone Radiant HVAC Cooling Rate [W] !Hourly
End of Data Dictionary
1,ATLANTA-HARTSFIELD.JACKSON.INTL.AP_GA_USA ANN HTG 99.6% CONDNS DB,  33.63, -84.43,  -5.00, 308.00
2,1, 1,21, 0, 1, 0.00,60.00,WinterDesignDay
769,16.033267155774916
2050,0.0
2,1, 1,21, 0, 2, 0.00,60.00,WinterDesignDay
769,16.028706545025285
2050,0.0
2,1, 1,21, 0, 3, 0.00,60.00,WinterDesignDay
769,16.02885258912155
2050,0.0
2,1, 1,21, 0, 4, 0.00,60.00,WinterDesignDay
769,16.024471886802183
2050,0.0
2,1, 1,21, 0, 5, 0.00,60.00,WinterDesignDay
769,16.02578509663711
2050,0.0
2,1, 1,21, 0, 6, 0.00,60.00,WinterDesignDay
769,16.02690420940756
2050,0.0
2,1, 1,21, 0, 7, 0.00,60.00,WinterDesignDay
769,16.45096544034138
2050,0.0
2,1, 1,21, 0, 8, 0.00,60.00,WinterDesignDay
769,16.331239188301969
2050,0.0
2,1, 1,21, 0, 9, 0.00,60.00,WinterDesignDay
769,16.111019244717835
2050,0.0
2,1, 1,21, 0,10, 0.00,60.00,WinterDesignDay
769,16.158714615240596
2050,0.0
2,1, 1,21, 0,11, 0.00,60.00,WinterDesignDay
769,16.165930200906716
2050,0.0
2,1, 1,21, 0,12, 0.00,60.00,WinterDesignDay
769,16.10593173005673
2050,0.0
2,1, 1,21, 0,13, 0.00,60.00,WinterDesignDay
769,16.15975006107889
2050,0.0
2,1, 1,21, 0,14, 0.00,60.00,WinterDesignDay
769,16.160575986213958
2050,0.0
2,1, 1,21, 0,15, 0.00,60.00,WinterDesignDay
769,16.102410251336314
2050,0.0
2,1, 1,21, 0,16, 0.00,60.00,WinterDesignDay
769,16.164866120482786
2050,0.0
2,1, 1,21, 0,17, 0.00,60.00,WinterDesignDay
769,16.15449015620159
2050,0.0
2,1, 1,21, 0,18, 0.00,60.00,WinterDesignDay
769,16.10443798576833
2050,0.0
2,1, 1,21, 0,19, 0.00,60.00,WinterDesignDay
769,16.01000307191908
2050,0.0
2,1, 1,21, 0,20, 0.00,60.00,WinterDesignDay
769,16.031267765783036
2050,0.0
2,1, 1,21, 0,21, 0.00,60.00,WinterDesignDay
769,16.02168419823646
2050,0.0
2,1, 1,21, 0,22, 0.00,60.00,WinterDesignDay
769,16.022374028199449
2050,0.0
2,1, 1,21, 0,23, 0.00,60.00,WinterDesignDay
769,16.02534701534766
2050,0.0
2,1, 1,21, 0,24, 0.00,60.00,WinterDesignDay
769,16.027411364568154
2050,0.0
1,ATLANTA-HARTSFIELD.JACKSON.INTL.AP_GA_USA ANN CLG .4% CONDNS DB=>MWB,  33.63, -84.43,  -5.00, 308.00
2,1, 7,21, 0, 1, 0.00,60.00,SummerDesignDay
769,21.745567444947093
2050,13059.846219895893
2,1, 7,21, 0, 2, 0.00,60.00,SummerDesignDay
769,21.649492400142859
2050,12730.099860722115
2,1, 7,21, 0, 3, 0.00,60.00,SummerDesignDay
769,21.57258009918978
2050,12463.717385993881
2,1, 7,21, 0, 4, 0.00,60.00,SummerDesignDay
769,21.504175486584736
2050,12236.944574381347
2,1, 7,21, 0, 5, 0.00,60.00,SummerDesignDay
769,21.441146864772489
2050,12032.436314929591
2,1, 7,21, 0, 6, 0.00,60.00,SummerDesignDay
769,21.395326922846427
2050,11938.34187351291
2,1, 7,21, 0, 7, 0.00,60.00,SummerDesignDay
769,21.73320235915032
2050,13573.491461355736
2,1, 7,21, 0, 8, 0.00,60.00,SummerDesignDay
769,21.95863029029582
2050,15151.241657768818
2,1, 7,21, 0, 9, 0.00,60.00,SummerDesignDay
769,22.26973096932592
2050,17546.005955884906
2,1, 7,21, 0,10, 0.00,60.00,SummerDesignDay
769,22.627680205368198
2050,20286.6641867993
2,1, 7,21, 0,11, 0.00,60.00,SummerDesignDay
769,23.14210831228272
2050,24551.24515379018
2,1, 7,21, 0,12, 0.00,60.00,SummerDesignDay
769,23.65286574683938
2050,28267.399462197813
2,1, 7,21, 0,13, 0.00,60.00,SummerDesignDay
769,24.002491583717146
2050,30269.715504738815
2,1, 7,21, 0,14, 0.00,60.00,SummerDesignDay
769,24.158709344133017
2050,30636.016390287383
2,1, 7,21, 0,15, 0.00,60.00,SummerDesignDay
769,24.07119286369269
2050,30018.74359538027
2,1, 7,21, 0,16, 0.00,60.00,SummerDesignDay
769,23.746796146636929
2050,27280.487811956962
2,1, 7,21, 0,17, 0.00,60.00,SummerDesignDay
769,23.416110607282417
2050,23905.649651462012
2,1, 7,21, 0,18, 0.00,60.00,SummerDesignDay
769,23.167645084380245
2050,21377.63446719365
2,1, 7,21, 0,19, 0.00,60.00,SummerDesignDay
769,22.907502571152717
2050,19318.41254068527
2,1, 7,21, 0,20, 0.00,60.00,SummerDesignDay
769,22.693214048858179
2050,17265.2933768859
2,1, 7,21, 0,21, 0.00,60.00,SummerDesignDay
769,22.523411033297124
2050,15691.99770118575
2,1, 7,21, 0,22, 0.00,60.00,SummerDesignDay
769,22.409551056943504
2050,15030.664120603284
2,1, 7,21, 0,23, 0.00,60.00,SummerDesignDay
769,22.04810948457733
2050,13655.884019568302
2,1, 7,21, 0,24, 0.00,60.00,SummerDesignDay
769,21.891257933095937
2050,13524.116629601285
1,RUNPERIOD 1,  33.63, -84.43,  -5.00, 308.00
2,1, 7, 1, 0, 1, 0.00,60.00,Monday
769,19.468012203881984
2050,9224.538708968581
2,1, 7, 1, 0, 2, 0.00,60.00,Monday
769,19.44397216183408
2050,9414.572700075887
2,1, 7, 1, 0, 3, 0.00,60.00,Monday
769,19.38247376967322
2050,9356.565334755605
2,1, 7, 1, 0, 4, 0.00,60.00,Monday
769,19.32321785009783
2050,9213.049643764441
2,1, 7, 1, 0, 5, 0.00,60.00,Monday
769,19.289702643363005
2050,9186.786081721382
2,1, 7, 1, 0, 6, 0.00,60.00,Monday
769,19.31019271030975
2050,9397.196807618693
2,1, 7, 1, 0, 7, 0.00,60.00,Monday
769,19.432176960848449
2050,11931.595249233216
2,1, 7, 1, 0, 8, 0.00,60.00,Monday
769,19.574785965150217
2050,15715.079726797396
2,1, 7, 1, 0, 9, 0.00,60.00,Monday
769,20.390936005730194
2050,16370.014167330593
2,1, 7, 1, 0,10, 0.00,60.00,Monday
769,21.005596161803177
2050,18894.34214858862
2,1, 7, 1, 0,11, 0.00,60.00,Monday
769,21.507781740308198
2050,20417.008854747175
2,1, 7, 1, 0,12, 0.00,60.00,Monday
769,22.12440572546177
2050,25168.86029145451
2,1, 7, 1, 0,13, 0.00,60.00,Monday
769,22.550465873983325
2050,14648.44596591778
2,1, 7, 1, 0,14, 0.00,60.00,Monday
769,22.926188503371713
2050,19203.692899785026
2,1, 7, 1, 0,15, 0.00,60.00,Monday
769,22.943578777644455
2050,22048.72860235573
2,1, 7, 1, 0,16, 0.00,60.00,Monday
769,22.761710395640816
2050,17515.528555331228
2,1, 7, 1, 0,17, 0.00,60.00,Monday
769,22.437096727391528
2050,13620.301853090301
2,1, 7, 1, 0,18, 0.00,60.00,Monday
769,21.443681355219959
2050,16191.118746416785
2,1, 7, 1, 0,19, 0.00,60.00,Monday
769,20.715639924850465
2050,15592.452188507175
2,1, 7, 1, 0,20, 0.00,60.00,Monday
769,20.244990854193817
2050,12359.2911094358
2,1, 7, 1, 0,21, 0.00,60.00,Monday
769,19.96732062405505
2050,5727.235660316339
2,1, 7, 1, 0,22, 0.00,60.00,Monday
769,19.822066071844057
2050,11605.270711049885
2,1, 7, 1, 0,23, 0.00,60.00,Monday
769,19.641402823632505
2050,8634.37856085231
2,1, 7, 1, 0,24, 0.00,60.00,Monday
769,19.562815836279289
2050,8762.127486427762
2,2, 7, 2, 0, 1, 0.00,60.00,Tuesday
769,19.50601972892923
2050,6675.686709691557
2,2, 7, 2, 0, 2, 0.00,60.00,Tuesday
769,19.499532591062278
2050,8222.160501439806
2,2, 7, 2, 0, 3, 0.00,60.00,Tuesday
769,19.438468892916217
2050,8051.014494784531
2,2, 7, 2, 0, 4, 0.00,60.00,Tuesday
769,19.358752122695173
2050,7645.687273696865
2,2, 7, 2, 0, 5, 0.00,60.00,Tuesday
769,19.315096609327929
2050,7338.1665875117919
2,2, 7, 2, 0, 6, 0.00,60.00,Tuesday
769,19.302240061725017
2050,7323.434880725329
2,2, 7, 2, 0, 7, 0.00,60.00,Tuesday
769,19.433841087744378
2050,7902.828076003528
2,2, 7, 2, 0, 8, 0.00,60.00,Tuesday
769,19.791789720613079
2050,10582.170361260427
2,2, 7, 2, 0, 9, 0.00,60.00,Tuesday
769,20.77926508852253
2050,15337.152291683224
2,2, 7, 2, 0,10, 0.00,60.00,Tuesday
769,21.243725429307298
2050,16867.30116868355
2,2, 7, 2, 0,11, 0.00,60.00,Tuesday
769,21.672104002964184
2050,20039.057555625925
2,2, 7, 2, 0,12, 0.00,60.00,Tuesday
769,22.150067473460813
2050,23310.724284598255
2,2, 7, 2, 0,13, 0.00,60.00,Tuesday
769,22.25820424990462
2050,24354.589344426833
2,2, 7, 2, 0,14, 0.00,60.00,Tuesday
769,22.6684508963696
2050,26477.517143721765
2,2, 7, 2, 0,15, 0.00,60.00,Tuesday
769,22.605882090125076
2050,24909.22012553025
2,2, 7, 2, 0,16, 0.00,60.00,Tuesday
769,22.539719882670356
2050,23582.77364154026
2,2, 7, 2, 0,17, 0.00,60.00,Tuesday
769,22.35979487554714
2050,21237.472499604533
2,2, 7, 2, 0,18, 0.00,60.00,Tuesday
769,21.603643601350293
2050,17586.82035800776
2,2, 7, 2, 0,19, 0.00,60.00,Tuesday
769,21.026064302877374
2050,15543.076281726619
2,2, 7, 2, 0,20, 0.00,60.00,Tuesday
769,20.583653474117204
2050,13015.151044183307
2,2, 7, 2, 0,21, 0.00,60.00,Tuesday
769,20.188425223890595
2050,10406.494541754953
2,2, 7, 2, 0,22, 0.00,60.00,Tuesday
769,19.977477520163075
2050,9205.481310158259
2,2, 7, 2, 0,23, 0.00,60.00,Tuesday
769,19.89806563303492
2050,8773.340978900436
2,2, 7, 2, 0,24, 0.00,60.00,Tuesday
769,19.788478752952288
2050,8197.700399416395
End of Data
 Number of Records Written=         192
