Program Version,EnergyPlus, Version 9.4.0-998c4b761e, YMD=2021.07.13 17:38
1,5,Environment Title[],Latitude[deg],Longitude[deg],Time Zone[],Elevation[m]
2,8,Day of Simulation[],Month[],Day of Month[],DST Indicator[1=yes 0=no],Hour[],StartMinute[],EndMinute[],DayType
3,5,Cumulative Day of Simulation[],Month[],Day of Month[],DST Indicator[1=yes 0=no],DayType  ! When Daily Report Variables Requested
4,2,Cumulative Days of Simulation[],Month[]  ! When Monthly Report Variables Requested
5,1,Cumulative Days of Simulation[] ! When Run Period Report Variables Requested
6,1,Calendar Year of Simulation[] ! When Annual Report Variables Requested
769,1,PERIMETER_TOP_ZN_1,Zone Mean Air Temperature [C] !Hourly
2050,1,PERI1_TOP_LOTEMP,Zone Radiant HVAC Cooling Rate [W] !Hourly
End of Data Dictionary
1,ATLANTA-HARTSFIELD.JACKSON.INTL.AP_GA_USA ANN HTG 99.6% CONDNS DB,  30.58, -96.37,  -6.00,  96.00
2,1, 1,21, 0, 1, 0.00,60.00,WinterDesignDay
769,13.55215269616047
2050,0.0
2,1, 1,21, 0, 2, 0.00,60.00,WinterDesignDay
769,13.545553528430033
2050,0.0
2,1, 1,21, 0, 3, 0.00,60.00,WinterDesignDay
769,13.539262412661863
2050,0.0
2,1, 1,21, 0, 4, 0.00,60.00,WinterDesignDay
769,13.533296381132278
2050,0.0
2,1, 1,21, 0, 5, 0.00,60.00,WinterDesignDay
769,13.527652381642178
2050,0.0
2,1, 1,21, 0, 6, 0.00,60.00,WinterDesignDay
769,13.522318972693086
2050,0.0
2,1, 1,21, 0, 7, 0.00,60.00,WinterDesignDay
769,13.775502754677973
2050,0.0
2,1, 1,21, 0, 8, 0.00,60.00,WinterDesignDay
769,13.79799466285026
2050,0.0
2,1, 1,21, 0, 9, 0.00,60.00,WinterDesignDay
769,13.812178178122166
2050,0.0
2,1, 1,21, 0,10, 0.00,60.00,WinterDesignDay
769,13.820367613080903
2050,0.0
2,1, 1,21, 0,11, 0.00,60.00,WinterDesignDay
769,13.82858668176971
2050,0.0
2,1, 1,21, 0,12, 0.00,60.00,WinterDesignDay
769,13.835764433151
2050,0.0
2,1, 1,21, 0,13, 0.00,60.00,WinterDesignDay
769,13.842304185628868
2050,0.0
2,1, 1,21, 0,14, 0.00,60.00,WinterDesignDay
769,13.84870793247708
2050,0.0
2,1, 1,21, 0,15, 0.00,60.00,WinterDesignDay
769,13.851408206305564
2050,0.0
2,1, 1,21, 0,16, 0.00,60.00,WinterDesignDay
769,13.858539400000982
2050,0.0
2,1, 1,21, 0,17, 0.00,60.00,WinterDesignDay
769,13.863856912604032
2050,0.0
2,1, 1,21, 0,18, 0.00,60.00,WinterDesignDay
769,13.867976182414515
2050,0.0
2,1, 1,21, 0,19, 0.00,60.00,WinterDesignDay
769,13.62104826231825
2050,0.0
2,1, 1,21, 0,20, 0.00,60.00,WinterDesignDay
769,13.576222479145521
2050,0.0
2,1, 1,21, 0,21, 0.00,60.00,WinterDesignDay
769,13.566670080228113
2050,0.0
2,1, 1,21, 0,22, 0.00,60.00,WinterDesignDay
769,13.559137432833348
2050,0.0
2,1, 1,21, 0,23, 0.00,60.00,WinterDesignDay
769,13.551918414130795
2050,0.0
2,1, 1,21, 0,24, 0.00,60.00,WinterDesignDay
769,13.544838882602658
2050,0.0
1,ATLANTA-HARTSFIELD.JACKSON.INTL.AP_GA_USA ANN CLG .4% CONDNS DB=>MWB,  30.58, -96.37,  -6.00,  96.00
2,1, 7,21, 0, 1, 0.00,60.00,SummerDesignDay
769,20.32671330741423
2050,11542.90098459652
2,1, 7,21, 0, 2, 0.00,60.00,SummerDesignDay
769,20.199856552060227
2050,9493.382985371201
2,1, 7,21, 0, 3, 0.00,60.00,SummerDesignDay
769,20.086048612254534
2050,8250.945834227507
2,1, 7,21, 0, 4, 0.00,60.00,SummerDesignDay
769,19.984894749902357
2050,7736.786518960615
2,1, 7,21, 0, 5, 0.00,60.00,SummerDesignDay
769,19.893835734779647
2050,7460.701627431919
2,1, 7,21, 0, 6, 0.00,60.00,SummerDesignDay
769,19.80555207478519
2050,7302.214795285445
2,1, 7,21, 0, 7, 0.00,60.00,SummerDesignDay
769,19.928790288408139
2050,7825.3505254762999
2,1, 7,21, 0, 8, 0.00,60.00,SummerDesignDay
769,19.996620225232637
2050,8567.254909598623
2,1, 7,21, 0, 9, 0.00,60.00,SummerDesignDay
769,20.217126006793096
2050,9695.091770106696
2,1, 7,21, 0,10, 0.00,60.00,SummerDesignDay
769,20.57326625170057
2050,10880.720065258529
2,1, 7,21, 0,11, 0.00,60.00,SummerDesignDay
769,21.05758008033975
2050,11792.166873150207
2,1, 7,21, 0,12, 0.00,60.00,SummerDesignDay
769,21.60153352548696
2050,11852.596895194152
2,1, 7,21, 0,13, 0.00,60.00,SummerDesignDay
769,22.08724832768406
2050,11859.255483340183
2,1, 7,21, 0,14, 0.00,60.00,SummerDesignDay
769,22.452021862620194
2050,11940.831246066879
2,1, 7,21, 0,15, 0.00,60.00,SummerDesignDay
769,22.643261486653836
2050,11979.600466743495
2,1, 7,21, 0,16, 0.00,60.00,SummerDesignDay
769,22.650128886660846
2050,11965.393110290695
2,1, 7,21, 0,17, 0.00,60.00,SummerDesignDay
769,22.534796330517105
2050,12021.590113868953
2,1, 7,21, 0,18, 0.00,60.00,SummerDesignDay
769,22.321626949581533
2050,11924.485979892685
2,1, 7,21, 0,19, 0.00,60.00,SummerDesignDay
769,22.021355733868359
2050,11756.446759881974
2,1, 7,21, 0,20, 0.00,60.00,SummerDesignDay
769,21.706728051633364
2050,11589.903487862925
2,1, 7,21, 0,21, 0.00,60.00,SummerDesignDay
769,21.40253538611865
2050,11657.526017280004
2,1, 7,21, 0,22, 0.00,60.00,SummerDesignDay
769,21.136325664424708
2050,11740.97415424692
2,1, 7,21, 0,23, 0.00,60.00,SummerDesignDay
769,20.75788247823683
2050,11782.889302560989
2,1, 7,21, 0,24, 0.00,60.00,SummerDesignDay
769,20.521430091660663
2050,11740.095156187223
1,RUNPERIOD 1,  30.58, -96.37,  -6.00,  96.00
2,1, 7, 1, 0, 1, 0.00,60.00,Monday
769,22.875407921990108
2050,7235.636692042625
2,1, 7, 1, 0, 2, 0.00,60.00,Monday
769,22.83866057993394
2050,8562.457544170295
2,1, 7, 1, 0, 3, 0.00,60.00,Monday
769,22.840421748440688
2050,3275.8655366953919
2,1, 7, 1, 0, 4, 0.00,60.00,Monday
769,22.887492006661796
2050,4428.848453456275
2,1, 7, 1, 0, 5, 0.00,60.00,Monday
769,22.956798290408707
2050,5215.946497420194
2,1, 7, 1, 0, 6, 0.00,60.00,Monday
769,22.978848585184463
2050,8934.009853787697
2,1, 7, 1, 0, 7, 0.00,60.00,Monday
769,23.005811660949488
2050,7886.227029823862
2,1, 7, 1, 0, 8, 0.00,60.00,Monday
769,19.92837548210163
2050,8147.489606940657
2,1, 7, 1, 0, 9, 0.00,60.00,Monday
769,19.91228570262978
2050,9299.803007227993
2,1, 7, 1, 0,10, 0.00,60.00,Monday
769,20.084802541343647
2050,6276.951119607077
2,1, 7, 1, 0,11, 0.00,60.00,Monday
769,20.453576555633619
2050,11960.866627525085
2,1, 7, 1, 0,12, 0.00,60.00,Monday
769,20.99520004310948
2050,10097.1937986448
2,1, 7, 1, 0,13, 0.00,60.00,Monday
769,21.31394250405848
2050,12000.434836548773
2,1, 7, 1, 0,14, 0.00,60.00,Monday
769,21.71186285514742
2050,11890.80514808768
2,1, 7, 1, 0,15, 0.00,60.00,Monday
769,21.85687110782942
2050,11133.851152594703
2,1, 7, 1, 0,16, 0.00,60.00,Monday
769,21.86536736780583
2050,12205.109476026868
2,1, 7, 1, 0,17, 0.00,60.00,Monday
769,21.852577991001593
2050,11947.366822475255
2,1, 7, 1, 0,18, 0.00,60.00,Monday
769,21.43317133484911
2050,11931.816631955056
2,1, 7, 1, 0,19, 0.00,60.00,Monday
769,20.8095456849838
2050,11758.90434583794
2,1, 7, 1, 0,20, 0.00,60.00,Monday
769,20.272184313115156
2050,11644.646632116575
2,1, 7, 1, 0,21, 0.00,60.00,Monday
769,19.853402643038593
2050,11694.427184105298
2,1, 7, 1, 0,22, 0.00,60.00,Monday
769,23.20698525814636
2050,10761.855407560932
2,1, 7, 1, 0,23, 0.00,60.00,Monday
769,23.279453801549868
2050,11962.331344930275
2,1, 7, 1, 0,24, 0.00,60.00,Monday
769,22.922263741477076
2050,7315.786653099971
2,2, 7, 2, 0, 1, 0.00,60.00,Tuesday
769,22.863423481101944
2050,7535.642536979115
2,2, 7, 2, 0, 2, 0.00,60.00,Tuesday
769,22.79621489994294
2050,6116.198708279099
2,2, 7, 2, 0, 3, 0.00,60.00,Tuesday
769,22.755421929032857
2050,5492.150498344608
2,2, 7, 2, 0, 4, 0.00,60.00,Tuesday
769,22.761969923848488
2050,5175.092342187509
2,2, 7, 2, 0, 5, 0.00,60.00,Tuesday
769,22.78438425041417
2050,5021.729216958532
2,2, 7, 2, 0, 6, 0.00,60.00,Tuesday
769,22.861857984139886
2050,5125.251310782819
2,2, 7, 2, 0, 7, 0.00,60.00,Tuesday
769,22.984918743532306
2050,5515.639602725162
2,2, 7, 2, 0, 8, 0.00,60.00,Tuesday
769,19.763032205066297
2050,6378.56957157143
2,2, 7, 2, 0, 9, 0.00,60.00,Tuesday
769,19.67449959024344
2050,7901.490357915468
2,2, 7, 2, 0,10, 0.00,60.00,Tuesday
769,19.891247603801778
2050,8957.44231560273
2,2, 7, 2, 0,11, 0.00,60.00,Tuesday
769,20.145260536593648
2050,10055.827467582845
2,2, 7, 2, 0,12, 0.00,60.00,Tuesday
769,20.519848132053327
2050,10796.994948084133
2,2, 7, 2, 0,13, 0.00,60.00,Tuesday
769,20.962555515446647
2050,11663.585570524105
2,2, 7, 2, 0,14, 0.00,60.00,Tuesday
769,21.444966762088997
2050,11907.041720023171
2,2, 7, 2, 0,15, 0.00,60.00,Tuesday
769,21.834116195479099
2050,11978.126503219068
2,2, 7, 2, 0,16, 0.00,60.00,Tuesday
769,21.825761303227578
2050,11983.884014834619
2,2, 7, 2, 0,17, 0.00,60.00,Tuesday
769,21.812964764383709
2050,11973.057309568689
2,2, 7, 2, 0,18, 0.00,60.00,Tuesday
769,21.46686376708732
2050,11929.331291133858
2,2, 7, 2, 0,19, 0.00,60.00,Tuesday
769,21.18346315818443
2050,11831.06420061323
2,2, 7, 2, 0,20, 0.00,60.00,Tuesday
769,20.81703113656794
2050,11625.636467376758
2,2, 7, 2, 0,21, 0.00,60.00,Tuesday
769,20.407306919752508
2050,11615.035141748573
2,2, 7, 2, 0,22, 0.00,60.00,Tuesday
769,23.452785634625266
2050,11746.059582663791
2,2, 7, 2, 0,23, 0.00,60.00,Tuesday
769,23.370808812979708
2050,11754.526045571369
2,2, 7, 2, 0,24, 0.00,60.00,Tuesday
769,22.943104791614318
2050,10919.489311540434
End of Data
 Number of Records Written=         192
