Program Version,EnergyPlus, Version 9.4.0-998c4b761e, YMD=2021.07.13 18:31
1,5,Environment Title[],Latitude[deg],Longitude[deg],Time Zone[],Elevation[m]
2,8,Day of Simulation[],Month[],Day of Month[],DST Indicator[1=yes 0=no],Hour[],StartMinute[],EndMinute[],DayType
3,5,Cumulative Day of Simulation[],Month[],Day of Month[],DST Indicator[1=yes 0=no],DayType  ! When Daily Report Variables Requested
4,2,Cumulative Days of Simulation[],Month[]  ! When Monthly Report Variables Requested
5,1,Cumulative Days of Simulation[] ! When Run Period Report Variables Requested
6,1,Calendar Year of Simulation[] ! When Annual Report Variables Requested
770,1,PERIMETER_TOP_ZN_4,Zone Mean Air Temperature [C] !Hourly
2050,1,PERI1_TOP_LOTEMP,Zone Radiant HVAC Cooling Rate [W] !Hourly
End of Data Dictionary
1,ATLANTA-HARTSFIELD.JACKSON.INTL.AP_GA_USA ANN HTG 99.6% CONDNS DB,  33.63, -84.43,  -5.00, 308.00
2,1, 1,21, 0, 1, 0.00,60.00,WinterDesignDay
770,19.370114395585316
2050,0.0
2,1, 1,21, 0, 2, 0.00,60.00,WinterDesignDay
770,19.14638180007719
2050,0.0
2,1, 1,21, 0, 3, 0.00,60.00,WinterDesignDay
770,19.353901398991636
2050,0.0
2,1, 1,21, 0, 4, 0.00,60.00,WinterDesignDay
770,19.1615742619753
2050,0.0
2,1, 1,21, 0, 5, 0.00,60.00,WinterDesignDay
770,19.336942475076488
2050,0.0
2,1, 1,21, 0, 6, 0.00,60.00,WinterDesignDay
770,19.176732605944009
2050,0.0
2,1, 1,21, 0, 7, 0.00,60.00,WinterDesignDay
770,19.463947234668284
2050,0.0
2,1, 1,21, 0, 8, 0.00,60.00,WinterDesignDay
770,19.389949948642707
2050,0.0
2,1, 1,21, 0, 9, 0.00,60.00,WinterDesignDay
770,19.272263937390798
2050,0.0
2,1, 1,21, 0,10, 0.00,60.00,WinterDesignDay
770,19.184729303018068
2050,0.0
2,1, 1,21, 0,11, 0.00,60.00,WinterDesignDay
770,19.120663176161558
2050,0.0
2,1, 1,21, 0,12, 0.00,60.00,WinterDesignDay
770,19.06664990433028
2050,0.0
2,1, 1,21, 0,13, 0.00,60.00,WinterDesignDay
770,19.020255601121979
2050,0.0
2,1, 1,21, 0,14, 0.00,60.00,WinterDesignDay
770,19.056773624422413
2050,0.0
2,1, 1,21, 0,15, 0.00,60.00,WinterDesignDay
770,19.041196687326825
2050,0.0
2,1, 1,21, 0,16, 0.00,60.00,WinterDesignDay
770,19.03628073307518
2050,0.0
2,1, 1,21, 0,17, 0.00,60.00,WinterDesignDay
770,19.112147392956265
2050,0.0
2,1, 1,21, 0,18, 0.00,60.00,WinterDesignDay
770,19.057637053290756
2050,0.0
2,1, 1,21, 0,19, 0.00,60.00,WinterDesignDay
770,19.91229112697639
2050,0.0
2,1, 1,21, 0,20, 0.00,60.00,WinterDesignDay
770,20.06272447528079
2050,0.0
2,1, 1,21, 0,21, 0.00,60.00,WinterDesignDay
770,19.54379621862756
2050,0.0
2,1, 1,21, 0,22, 0.00,60.00,WinterDesignDay
770,19.139783032511479
2050,0.0
2,1, 1,21, 0,23, 0.00,60.00,WinterDesignDay
770,19.36090377702056
2050,0.0
2,1, 1,21, 0,24, 0.00,60.00,WinterDesignDay
770,19.126620594411656
2050,0.0
1,ATLANTA-HARTSFIELD.JACKSON.INTL.AP_GA_USA ANN CLG .4% CONDNS DB=>MWB,  33.63, -84.43,  -5.00, 308.00
2,1, 7,21, 0, 1, 0.00,60.00,SummerDesignDay
770,22.957210446288117
2050,3473.6455588850287
2,1, 7,21, 0, 2, 0.00,60.00,SummerDesignDay
770,22.96311714826487
2050,4312.287483699808
2,1, 7,21, 0, 3, 0.00,60.00,SummerDesignDay
770,22.96718737415426
2050,4318.227414525564
2,1, 7,21, 0, 4, 0.00,60.00,SummerDesignDay
770,22.95300643355472
2050,2807.6982720061175
2,1, 7,21, 0, 5, 0.00,60.00,SummerDesignDay
770,22.95234175356918
2050,3677.6143816210226
2,1, 7,21, 0, 6, 0.00,60.00,SummerDesignDay
770,22.973793082912363
2050,4554.578652120991
2,1, 7,21, 0, 7, 0.00,60.00,SummerDesignDay
770,22.989799136220055
2050,6519.841459051219
2,1, 7,21, 0, 8, 0.00,60.00,SummerDesignDay
770,22.98220386697907
2050,5474.063144176645
2,1, 7,21, 0, 9, 0.00,60.00,SummerDesignDay
770,22.98993719855384
2050,5931.022850770519
2,1, 7,21, 0,10, 0.00,60.00,SummerDesignDay
770,22.993046817441767
2050,5958.841135094149
2,1, 7,21, 0,11, 0.00,60.00,SummerDesignDay
770,22.998804182011889
2050,6402.822257927197
2,1, 7,21, 0,12, 0.00,60.00,SummerDesignDay
770,22.996927548128967
2050,6392.349485932389
2,1, 7,21, 0,13, 0.00,60.00,SummerDesignDay
770,23.00789785868135
2050,7072.239808116619
2,1, 7,21, 0,14, 0.00,60.00,SummerDesignDay
770,23.06306990773727
2050,11523.868154122581
2,1, 7,21, 0,15, 0.00,60.00,SummerDesignDay
770,23.060017675409705
2050,12912.256859886753
2,1, 7,21, 0,16, 0.00,60.00,SummerDesignDay
770,23.07226998440376
2050,13481.830801564463
2,1, 7,21, 0,17, 0.00,60.00,SummerDesignDay
770,23.04059216528369
2050,12301.142575508136
2,1, 7,21, 0,18, 0.00,60.00,SummerDesignDay
770,23.027192897214304
2050,8856.639884502478
2,1, 7,21, 0,19, 0.00,60.00,SummerDesignDay
770,22.973218950542415
2050,3891.525050337833
2,1, 7,21, 0,20, 0.00,60.00,SummerDesignDay
770,22.9367162561595
2050,2163.1333487115127
2,1, 7,21, 0,21, 0.00,60.00,SummerDesignDay
770,22.98216543875718
2050,5235.192629379136
2,1, 7,21, 0,22, 0.00,60.00,SummerDesignDay
770,22.974306193353415
2050,5211.73265712893
2,1, 7,21, 0,23, 0.00,60.00,SummerDesignDay
770,22.87046897716511
2050,2616.5438516131168
2,1, 7,21, 0,24, 0.00,60.00,SummerDesignDay
770,22.96691328835995
2050,4320.016978904764
1,RUNPERIOD 1,  33.63, -84.43,  -5.00, 308.00
2,1, 7, 1, 0, 1, 0.00,60.00,Monday
770,22.89076493693524
2050,0.0
2,1, 7, 1, 0, 2, 0.00,60.00,Monday
770,22.95349291435675
2050,0.0
2,1, 7, 1, 0, 3, 0.00,60.00,Monday
770,22.922085885050856
2050,0.0
2,1, 7, 1, 0, 4, 0.00,60.00,Monday
770,22.881092379715708
2050,0.0
2,1, 7, 1, 0, 5, 0.00,60.00,Monday
770,22.843062907342167
2050,0.0
2,1, 7, 1, 0, 6, 0.00,60.00,Monday
770,22.866720148517449
2050,0.0
2,1, 7, 1, 0, 7, 0.00,60.00,Monday
770,22.897792765539124
2050,2598.282563491811
2,1, 7, 1, 0, 8, 0.00,60.00,Monday
770,22.952061208255207
2050,1927.6120233435602
2,1, 7, 1, 0, 9, 0.00,60.00,Monday
770,23.31930890129114
2050,14007.402995849536
2,1, 7, 1, 0,10, 0.00,60.00,Monday
770,22.90174430708725
2050,3345.120914687955
2,1, 7, 1, 0,11, 0.00,60.00,Monday
770,22.980614312211555
2050,5690.394701402822
2,1, 7, 1, 0,12, 0.00,60.00,Monday
770,22.97844742721532
2050,5237.97484967636
2,1, 7, 1, 0,13, 0.00,60.00,Monday
770,22.908834141855008
2050,2849.58085873063
2,1, 7, 1, 0,14, 0.00,60.00,Monday
770,23.015325197081144
2050,7855.171169022428
2,1, 7, 1, 0,15, 0.00,60.00,Monday
770,23.006244276826899
2050,6771.689458084666
2,1, 7, 1, 0,16, 0.00,60.00,Monday
770,22.88498051648484
2050,1495.455535073679
2,1, 7, 1, 0,17, 0.00,60.00,Monday
770,22.95574149567242
2050,3891.7534116749277
2,1, 7, 1, 0,18, 0.00,60.00,Monday
770,22.632960069047419
2050,0.0
2,1, 7, 1, 0,19, 0.00,60.00,Monday
770,22.911598812135556
2050,3662.362186986089
2,1, 7, 1, 0,20, 0.00,60.00,Monday
770,22.90452528342178
2050,212.39785565541147
2,1, 7, 1, 0,21, 0.00,60.00,Monday
770,22.938560941641584
2050,1490.2977134496182
2,1, 7, 1, 0,22, 0.00,60.00,Monday
770,22.961231167208149
2050,2358.5827455361229
2,1, 7, 1, 0,23, 0.00,60.00,Monday
770,22.959383561493647
2050,1274.4583381002047
2,1, 7, 1, 0,24, 0.00,60.00,Monday
770,22.958808143940286
2050,0.0
2,2, 7, 2, 0, 1, 0.00,60.00,Tuesday
770,22.90507591268766
2050,0.0
2,2, 7, 2, 0, 2, 0.00,60.00,Tuesday
770,22.84612497849664
2050,0.0
2,2, 7, 2, 0, 3, 0.00,60.00,Tuesday
770,22.773973135557225
2050,0.0
2,2, 7, 2, 0, 4, 0.00,60.00,Tuesday
770,22.66093351499305
2050,0.0
2,2, 7, 2, 0, 5, 0.00,60.00,Tuesday
770,22.66709903269353
2050,0.0
2,2, 7, 2, 0, 6, 0.00,60.00,Tuesday
770,22.682981334996425
2050,0.0
2,2, 7, 2, 0, 7, 0.00,60.00,Tuesday
770,22.923641588438639
2050,1926.2740205625208
2,2, 7, 2, 0, 8, 0.00,60.00,Tuesday
770,22.955832451945058
2050,1925.6027481954166
2,2, 7, 2, 0, 9, 0.00,60.00,Tuesday
770,23.297166087804805
2050,13665.886463445126
2,2, 7, 2, 0,10, 0.00,60.00,Tuesday
770,22.86977717827746
2050,2867.98181170738
2,2, 7, 2, 0,11, 0.00,60.00,Tuesday
770,22.972434988078996
2050,5266.799196199741
2,2, 7, 2, 0,12, 0.00,60.00,Tuesday
770,22.954925412238209
2050,3271.450697336569
2,2, 7, 2, 0,13, 0.00,60.00,Tuesday
770,22.974664335209249
2050,4587.726992455802
2,2, 7, 2, 0,14, 0.00,60.00,Tuesday
770,23.069277258753176
2050,10582.880924548
2,2, 7, 2, 0,15, 0.00,60.00,Tuesday
770,23.066566937426804
2050,9677.929648259824
2,2, 7, 2, 0,16, 0.00,60.00,Tuesday
770,23.050101211926515
2050,12415.11354185596
2,2, 7, 2, 0,17, 0.00,60.00,Tuesday
770,23.045803855754167
2050,10463.82302345989
2,2, 7, 2, 0,18, 0.00,60.00,Tuesday
770,22.933937301525434
2050,4759.047917633258
2,2, 7, 2, 0,19, 0.00,60.00,Tuesday
770,22.781737262997067
2050,0.0
2,2, 7, 2, 0,20, 0.00,60.00,Tuesday
770,22.86909987538392
2050,0.0
2,2, 7, 2, 0,21, 0.00,60.00,Tuesday
770,22.902094120395185
2050,2153.169358534886
2,2, 7, 2, 0,22, 0.00,60.00,Tuesday
770,23.013320145705039
2050,8286.036043313168
2,2, 7, 2, 0,23, 0.00,60.00,Tuesday
770,22.946343452792914
2050,4087.906461749507
2,2, 7, 2, 0,24, 0.00,60.00,Tuesday
770,22.965118770766268
2050,1699.913529206289
End of Data
 Number of Records Written=         192
