Program Version,EnergyPlus, Version 9.4.0-998c4b761e, YMD=2021.07.15 02:36
1,5,Environment Title[],Latitude[deg],Longitude[deg],Time Zone[],Elevation[m]
2,8,Day of Simulation[],Month[],Day of Month[],DST Indicator[1=yes 0=no],Hour[],StartMinute[],EndMinute[],DayType
3,5,Cumulative Day of Simulation[],Month[],Day of Month[],DST Indicator[1=yes 0=no],DayType  ! When Daily Report Variables Requested
4,2,Cumulative Days of Simulation[],Month[]  ! When Monthly Report Variables Requested
5,1,Cumulative Days of Simulation[] ! When Run Period Report Variables Requested
6,1,Calendar Year of Simulation[] ! When Annual Report Variables Requested
769,1,PERIMETER_TOP_ZN_1,Zone Mean Air Temperature [C] !Hourly
1889,1,PERI1_TOP DOAS ATU,Zone Air Terminal Sensible Cooling Rate [W] !Hourly
2051,1,PERI1_TOP_LOTEMP,Zone Radiant HVAC Cooling Rate [W] !Hourly
2054,1,PERI1_TOP_LOTEMP,Zone Radiant HVAC Mass Flow Rate [kg/s] !Hourly
2055,1,PERI1_TOP_LOTEMP,Zone Radiant HVAC Injection Mass Flow Rate [kg/s] !Hourly
2056,1,PERI1_TOP_LOTEMP,Zone Radiant HVAC Recirculation Mass Flow Rate [kg/s] !Hourly
2057,1,PERI1_TOP_LOTEMP,Zone Radiant HVAC Inlet Temperature [C] !Hourly
2058,1,PERI1_TOP_LOTEMP,Zone Radiant HVAC Outlet Temperature [C] !Hourly
2064,1,PERI2_TOP_LOTEMP,Zone Radiant HVAC Outlet Temperature [C] !Hourly
2286,1,PERI1_TOP_LOTEMP_CHW_INLET,System Node Temperature [C] !Hourly
2287,1,PERI1_TOP_LOTEMP_CHW_OUTLET,System Node Temperature [C] !Hourly
End of Data Dictionary
1,ATLANTA-HARTSFIELD.JACKSON.INTL.AP_GA_USA ANN HTG 99.6% CONDNS DB,  33.63, -84.43,  -5.00, 308.00
2,1, 1,21, 0, 1, 0.00,60.00,WinterDesignDay
769,16.033267155774916
1889,0.0
2051,0.0
2054,0.47193600000000016
2055,0.06714835423648014
2056,0.40478764576351985
2057,30.034333072935615
2058,28.302719452517477
2064,36.90484957241846
2286,12.20000000000001
2287,12.20000000000001
2,1, 1,21, 0, 2, 0.00,60.00,WinterDesignDay
769,16.028706545025285
1889,0.0
2051,0.0
2054,0.58992
2055,0.08293762241673213
2056,0.5069823775832679
2057,30.05509489301958
2058,27.922480630808388
2064,36.90390850145899
2286,12.20000000000001
2287,12.20000000000001
2,1, 1,21, 0, 3, 0.00,60.00,WinterDesignDay
769,16.02885258912155
1889,0.0
2051,0.0
2054,0.7079039999999999
2055,0.10032127607340373
2056,0.6075827239265962
2057,30.057023846119387
2058,27.473984176563378
2064,36.90307350033181
2286,12.20000000000001
2287,12.20000000000001
2,1, 1,21, 0, 4, 0.00,60.00,WinterDesignDay
769,16.024471886802183
1889,0.0
2051,0.0
2054,0.7079039999999999
2055,0.10054354669782567
2056,0.6073604533021744
2057,30.057486576650189
2058,27.468037651735704
2064,36.90232618693387
2286,12.20000000000001
2287,12.20000000000001
2,1, 1,21, 0, 5, 0.00,60.00,WinterDesignDay
769,16.02578509663711
1889,0.0
2051,0.0
2054,0.668576
2055,0.09575799655442007
2056,0.5728180034455799
2057,30.05815562021312
2058,27.589202401932199
2064,36.901653705262138
2286,12.20000000000001
2287,12.20000000000001
2,1, 1,21, 0, 6, 0.00,60.00,WinterDesignDay
769,16.02690420940756
1889,0.0
2051,0.0
2054,0.629248
2055,0.09060713656103302
2056,0.538640863438967
2057,30.069609205375899
2058,27.731522868163674
2064,36.90104403795634
2286,12.20000000000001
2287,12.20000000000001
2,1, 1,21, 0, 7, 0.00,60.00,WinterDesignDay
769,16.45096544034138
1889,0.0
2051,0.0
2054,0.039328
2055,0.00491988858670842
2056,0.03440811141329158
2057,30.06438398993345
2058,29.940043948006
2064,36.909958330840677
2286,12.20000000000001
2287,12.20000000000001
2,1, 1,21, 0, 8, 0.00,60.00,WinterDesignDay
769,16.331239188301969
1889,0.0
2051,0.0
2054,0.0
2055,0.0
2056,0.0
2057,30.06438398993345
2058,30.06438398993345
2064,36.92354574498107
2286,12.20000000000001
2287,12.20000000000001
2,1, 1,21, 0, 9, 0.00,60.00,WinterDesignDay
769,16.111019244717835
1889,0.0
2051,0.0
2054,0.23596800000000005
2055,0.04227103504738454
2056,0.19369696495261544
2057,30.069479711222127
2058,28.932871515074987
2064,36.92975759901743
2286,12.20000000000001
2287,12.20000000000001
2,1, 1,21, 0,10, 0.00,60.00,WinterDesignDay
769,16.158714615240596
1889,0.0
2051,0.0
2054,0.0
2055,0.0
2056,0.0
2057,30.068611772366635
2058,30.068611772366635
2064,36.93267134313525
2286,12.20000000000001
2287,12.20000000000001
2,1, 1,21, 0,11, 0.00,60.00,WinterDesignDay
769,16.165930200906716
1889,0.0
2051,0.0
2054,0.23596800000000005
2055,0.041777552624403
2056,0.194190447375597
2057,30.070589912483024
2058,28.950138743790569
2064,36.934345150097218
2286,12.20000000000001
2287,12.20000000000001
2,1, 1,21, 0,12, 0.00,60.00,WinterDesignDay
769,16.10593173005673
1889,0.0
2051,0.0
2054,0.23596800000000005
2055,0.0415304302046703
2056,0.1944375697953297
2057,30.062736205481845
2058,28.949947150241937
2064,36.93553792246554
2286,12.20000000000001
2287,12.20000000000001
2,1, 1,21, 0,13, 0.00,60.00,WinterDesignDay
769,16.15975006107889
1889,0.0
2051,0.0
2054,0.0
2055,0.0
2056,0.0
2057,30.05039690898936
2058,30.05039690898936
2064,36.93647399983058
2286,12.20000000000001
2287,12.20000000000001
2,1, 1,21, 0,14, 0.00,60.00,WinterDesignDay
769,16.160575986213958
1889,0.0
2051,0.0
2054,0.23596800000000005
2055,0.041514246886094178
2056,0.1944537531139058
2057,30.0734228821347
2058,28.961598923896305
2064,36.93727757956635
2286,12.20000000000001
2287,12.20000000000001
2,1, 1,21, 0,15, 0.00,60.00,WinterDesignDay
769,16.102410251336314
1889,0.0
2051,0.0
2054,0.23596800000000005
2055,0.04143951909884588
2056,0.19452848090115414
2057,30.07577691706688
2058,28.96643166901584
2064,36.93799144470608
2286,12.20000000000001
2287,12.20000000000001
2,1, 1,21, 0,16, 0.00,60.00,WinterDesignDay
769,16.164866120482786
1889,0.0
2051,0.0
2054,0.0
2055,0.0
2056,0.0
2057,30.074267948977249
2058,30.074267948977249
2064,36.938600683233847
2286,12.20000000000001
2287,12.20000000000001
2,1, 1,21, 0,17, 0.00,60.00,WinterDesignDay
769,16.15449015620159
1889,0.0
2051,0.0
2054,0.23596800000000005
2055,0.04132637819959059
2056,0.1946416218004094
2057,30.06886881036957
2058,28.962949989999733
2064,36.939153029539898
2286,12.20000000000001
2287,12.20000000000001
2,1, 1,21, 0,18, 0.00,60.00,WinterDesignDay
769,16.10443798576833
1889,0.0
2051,0.0
2054,0.23596800000000005
2055,0.04118819621814158
2056,0.1947798037818584
2057,30.058545178902926
2058,28.956623692478048
2064,36.939654353601479
2286,12.20000000000001
2287,12.20000000000001
2,1, 1,21, 0,19, 0.00,60.00,WinterDesignDay
769,16.01000307191908
1889,0.0
2051,0.0
2054,0.9438719999999996
2055,0.13641831346379733
2056,0.8074536865362029
2057,30.35675473352932
2058,26.8738614342015
2064,36.93061216642285
2286,12.20000000000001
2287,12.20000000000001
2,1, 1,21, 0,20, 0.00,60.00,WinterDesignDay
769,16.031267765783036
1889,0.0
2051,0.0
2054,0.668576
2055,0.08961657258704504
2056,0.5789594274129549
2057,30.061804678818516
2058,27.77528950034143
2064,36.91715165087315
2286,12.20000000000001
2287,12.20000000000001
2,1, 1,21, 0,21, 0.00,60.00,WinterDesignDay
769,16.02168419823646
1889,0.0
2051,0.0
2054,0.7079039999999999
2055,0.09982443064555494
2056,0.608079569354445
2057,30.087112837461644
2058,27.519705577016969
2064,36.91093010942941
2286,12.20000000000001
2287,12.20000000000001
2,1, 1,21, 0,22, 0.00,60.00,WinterDesignDay
769,16.022374028199449
1889,0.0
2051,0.0
2054,0.7079039999999999
2055,0.09979898209609851
2056,0.6081050179039015
2057,30.079336208046749
2058,27.511998129209535
2064,36.90777650829919
2286,12.20000000000001
2287,12.20000000000001
2,1, 1,21, 0,23, 0.00,60.00,WinterDesignDay
769,16.02534701534766
1889,0.0
2051,0.0
2054,0.7472319999999999
2055,0.10487287798924204
2056,0.642359122010758
2057,30.056927827325504
2058,27.361122195309279
2064,36.90589253675081
2286,12.20000000000001
2287,12.20000000000001
2,1, 1,21, 0,24, 0.00,60.00,WinterDesignDay
769,16.027411364568154
1889,0.0
2051,0.0
2054,0.5112640000000002
2055,0.0745563828270453
2056,0.43670761717295478
2057,30.0789072593838
2058,28.152003798759343
2064,36.90455733501354
2286,12.20000000000001
2287,12.20000000000001
1,ATLANTA-HARTSFIELD.JACKSON.INTL.AP_GA_USA ANN CLG .4% CONDNS DB=>MWB,  33.63, -84.43,  -5.00, 308.00
2,1, 7,21, 0, 1, 0.00,60.00,SummerDesignDay
769,21.745567443704464
1889,0.0
2051,13059.846218111352
2054,2.3997551999999997
2055,0.9857102737567053
2056,1.414044926243295
2057,8.876980467247256
2058,10.175027818335224
2064,28.175190915536786
2286,6.8834496140372709
2287,8.235168778095723
2,1, 7,21, 0, 2, 0.00,60.00,SummerDesignDay
769,21.649492398880836
1889,0.0
2051,12730.099858890837
2054,2.3997551999999997
2055,1.020056514243314
2056,1.3796986857566863
2057,8.95759057371902
2058,10.222897795130017
2064,27.993888976921885
2286,7.119586882741276
2287,8.438567361835672
2,1, 7,21, 0, 3, 0.00,60.00,SummerDesignDay
769,21.572580097945143
1889,0.0
2051,12463.71738421419
2054,2.3997551999999997
2055,1.0423184375657198
2056,1.3574367624342803
2057,9.02186087914601
2058,10.260717641811043
2064,28.031945604514364
2286,7.284739011941207
2287,8.577270184261782
2,1, 7,21, 0, 4, 0.00,60.00,SummerDesignDay
769,21.50417548532294
1889,0.0
2051,12236.944572585318
2054,2.3997551999999997
2055,1.0622491774831462
2056,1.3375060225168545
2057,9.078929144569745
2058,10.295268541840107
2064,27.81042422392875
2286,7.4259628378378379
2287,8.695977667646162
2,1, 7,21, 0, 5, 0.00,60.00,SummerDesignDay
769,21.441146863526514
1889,0.0
2051,12032.436313159977
2054,2.3997551999999997
2055,1.0774116316576353
2056,1.3223435683423655
2057,9.131557966810412
2058,10.32759048862415
2064,27.776274425560734
2286,7.544027675604874
2287,8.793736573346508
2,1, 7,21, 0, 6, 0.00,60.00,SummerDesignDay
769,21.395326921710724
1889,0.0
2051,11938.341872049647
2054,2.3997551999999997
2055,1.0588845400003553
2056,1.3408706599996448
2057,9.170324840652269
2058,10.357019698721468
2064,27.86486159957319
2286,7.545573915632699
2287,8.78594584457892
2,1, 7,21, 0, 7, 0.00,60.00,SummerDesignDay
769,21.733202357911784
1889,0.0
2051,13573.491459685438
2054,2.3997551999999997
2055,1.1576929639195808
2056,1.2420622360804193
2057,8.8949243545907
2058,10.244031353797208
2064,30.035024155882409
2286,7.335703317964298
2287,8.738482451732719
2,1, 7,21, 0, 8, 0.00,60.00,SummerDesignDay
769,21.958630289236696
1889,0.0
2051,15151.241656268357
2054,2.3997551999999997
2055,1.1108648434968094
2056,1.2888903565031909
2057,8.705081760477786
2058,10.210909695173463
2064,30.035024155882409
2286,6.840959799294428
2287,8.400456466320494
2,1, 7,21, 0, 9, 0.00,60.00,SummerDesignDay
769,22.269730969291208
1889,0.0
2051,17546.005956754812
2054,2.3997551999999997
2055,1.235996807635858
2056,1.163758392364142
2057,8.446390775747649
2058,10.190075197427781
2064,30.035024155882409
2286,6.699999999999995
2287,8.497348518616338
2,1, 7,21, 0,10, 0.00,60.00,SummerDesignDay
769,22.627680202168688
1889,0.0
2051,20286.664177603634
2054,2.3997551999999997
2055,1.4330693535139816
2056,0.9666858464860184
2057,8.149589697136609
2058,10.165433503202716
2064,30.035024155882409
2286,6.699999999999993
2287,8.769502585719387
2,1, 7,21, 0,11, 0.00,60.00,SummerDesignDay
769,23.142108310659958
1889,0.0
2051,24551.245153894488
2054,2.3997551999999997
2055,1.7283227817147598
2056,0.6714324182852395
2057,7.722580145974968
2058,10.161837693930938
2064,30.035024155882409
2286,6.699999999999993
2287,9.192908679488072
2,1, 7,21, 0,12, 0.00,60.00,SummerDesignDay
769,23.65286574578677
1889,0.0
2051,28267.399461406632
2054,2.3997551999999997
2055,2.018226110349453
2056,0.3815290896505473
2057,7.295434317440438
2058,10.10350862859467
2064,30.035024155882409
2286,6.699999999999993
2287,9.56171779418528
2,1, 7,21, 0,13, 0.00,60.00,SummerDesignDay
769,24.00249158254896
1889,0.0
2051,30269.715505222925
2054,2.3997551999999997
2055,2.202829833588751
2056,0.19692536641124859
2057,7.027363740690741
2058,10.034081389538079
2064,30.035024155882409
2286,6.699999999999993
2287,9.760356332874978
2,1, 7,21, 0,14, 0.00,60.00,SummerDesignDay
769,24.158709342746528
1889,0.0
2051,30636.016389956654
2054,2.3997551999999997
2055,2.2229094018127188
2056,0.176845798187282
2057,7.0
2058,10.043075179411197
2064,30.035024155882409
2286,6.699999999999993
2287,9.796713373619133
2,1, 7,21, 0,15, 0.00,60.00,SummerDesignDay
769,24.071192862324155
1889,0.0
2051,30018.743593149255
2054,2.3997551999999997
2055,2.2164080189229939
2056,0.18334718107700563
2057,7.004622214435807
2058,9.986388164010739
2064,30.035024155882409
2286,6.699999999999993
2287,9.735404226516416
2,1, 7,21, 0,16, 0.00,60.00,SummerDesignDay
769,23.74679614531797
1889,0.0
2051,27280.48780831368
2054,2.3997551999999997
2055,2.0621112400675996
2056,0.33764395993240078
2057,7.205909674031206
2058,9.915863601774828
2064,30.035024155882409
2286,6.699999999999993
2287,9.463595808020996
2,1, 7,21, 0,17, 0.00,60.00,SummerDesignDay
769,23.416110605948448
1889,0.0
2051,23905.64964927682
2054,2.3997551999999997
2055,1.8452081855130478
2056,0.5545470144869522
2057,7.4827399091364639
2058,9.857668424575183
2064,30.035024155882409
2286,6.699999999999993
2287,9.128575352037532
2,1, 7,21, 0,18, 0.00,60.00,SummerDesignDay
769,23.16764508305602
1889,0.0
2051,21377.634465213316
2054,2.3997551999999997
2055,1.6780319043164623
2056,0.7217232956835378
2057,7.690240251097742
2058,9.814168577563843
2064,30.035024155882409
2286,6.699999999999993
2287,8.877578878774758
2,1, 7,21, 0,19, 0.00,60.00,SummerDesignDay
769,22.907502569844409
1889,0.0
2051,19318.412538764456
2054,2.3997551999999997
2055,1.5147241796333233
2056,0.8850310203666766
2057,7.90666392787062
2058,9.8261409663443
2064,30.035024155882409
2286,6.699999999999993
2287,8.67313146679267
2,1, 7,21, 0,20, 0.00,60.00,SummerDesignDay
769,22.69321404756913
1889,0.0
2051,17265.293375019795
2054,2.3997551999999997
2055,1.3684997139107853
2056,1.0312554860892148
2057,8.086450742621329
2058,9.80203329514951
2064,30.035024155882409
2286,6.699999999999993
2287,8.469240201155693
2,1, 7,21, 0,21, 0.00,60.00,SummerDesignDay
769,22.52341103206884
1889,0.0
2051,15691.997699544409
2054,2.3997551999999997
2055,1.2535401847007417
2056,1.1462150152992583
2057,8.228655303464265
2058,9.787980357383809
2064,30.035024155882409
2286,6.699999999999993
2287,8.312985249902665
2,1, 7,21, 0,22, 0.00,60.00,SummerDesignDay
769,22.40955105589961
1889,0.0
2051,15030.664119325626
2054,2.3997551999999997
2055,1.1910904382735342
2056,1.2086647617264666
2057,8.323929594136816
2058,9.817585086310805
2064,30.035024155882409
2286,6.699999999999993
2287,8.24731739499947
2,1, 7,21, 0,23, 0.00,60.00,SummerDesignDay
769,22.048109483455215
1889,0.0
2051,13655.884017818935
2054,2.3997551999999997
2055,1.033420576489155
2056,1.366334623510845
2057,8.620928399762012
2058,9.97810090730648
2064,30.035024155882409
2286,6.699999999999993
2287,8.110839731888673
2,1, 7,21, 0,24, 0.00,60.00,SummerDesignDay
769,21.891257931917367
1889,0.0
2051,13524.116627793028
2054,2.3997551999999997
2055,0.9874901929291252
2056,1.4122650070708749
2057,8.755635925915718
2058,10.099773700912085
2064,28.985314956908558
2286,6.7027041521533159
2287,8.100511565410923
1,RUNPERIOD 1,  33.63, -84.43,  -5.00, 308.00
2,1, 7, 1, 0, 1, 0.00,60.00,Monday
769,19.556737753179413
1889,0.0
2051,8269.102857396767
2054,2.3997551999999997
2055,1.0559094370660092
2056,1.3438457629339909
2057,10.702220662206499
2058,11.524579034742727
2064,11.991639696639825
2286,9.483682634680852
2287,10.359743752578075
2,1, 7, 1, 0, 2, 0.00,60.00,Monday
769,19.556985277189637
1889,0.0
2051,8721.41687285214
2054,2.3997551999999997
2055,0.8531870297710582
2056,1.5465681702289418
2057,10.702067076436306
2058,11.569407832869976
2064,11.991639696639825
2286,8.978645698011276
2287,9.899689197403044
2,1, 7, 1, 0, 3, 0.00,60.00,Monday
769,19.51222343454635
1889,0.0
2051,8583.654390063852
2054,2.3997551999999997
2055,0.8573666757053945
2056,1.5423885242946054
2057,10.73917494782611
2058,11.59282434503718
2064,11.991639696639825
2286,9.053182680500783
2287,9.960535391367522
2,1, 7, 1, 0, 4, 0.00,60.00,Monday
769,19.470035172425857
1889,0.0
2051,8421.105150016407
2054,2.3997551999999997
2055,0.8607270624125737
2056,1.5390281375874262
2057,10.774450155626335
2058,11.611942406839076
2064,11.991639696639825
2286,9.12711011229201
2287,10.018306219717422
2,1, 7, 1, 0, 5, 0.00,60.00,Monday
769,19.450761539568004
1889,0.0
2051,8442.2466598109
2054,2.3997551999999997
2055,0.8738377300506465
2056,1.525917469949353
2057,10.791052180712513
2058,11.630650987984485
2064,11.991639696639825
2286,9.17746145709765
2287,10.07076437596
2,1, 7, 1, 0, 6, 0.00,60.00,Monday
769,19.479385244907488
1889,0.0
2051,8781.862587062957
2054,2.3997551999999997
2055,0.8605993480234694
2056,1.5391558519765312
2057,10.768172860936677
2058,11.6415413715195
2064,12.286055104151537
2286,9.055628117218623
2287,9.982700387471539
2,1, 7, 1, 0, 7, 0.00,60.00,Monday
769,19.647718693941493
1889,0.0
2051,9996.440265505687
2054,2.3997551999999997
2055,0.9334481158552161
2056,1.466307084144784
2057,10.629850248508904
2058,11.623970412480471
2064,18.991998653493544
2286,8.929769780679277
2287,9.977591576981265
2,1, 7, 1, 0, 8, 0.00,60.00,Monday
769,19.898083585535305
1889,0.0
2051,11526.50558002136
2054,2.3997551999999997
2055,0.9122649121045559
2056,1.4874902878954437
2057,10.421910211856659
2058,11.5681230701411
2064,10.16666850168104
2286,8.393592544590764
2287,9.593503837481926
2,1, 7, 1, 0, 9, 0.00,60.00,Monday
769,20.849261865076984
1889,0.0
2051,15890.670913703592
2054,2.3997551999999997
2055,0.970067011676419
2056,1.4296881883235815
2057,9.642006077258487
2058,11.221810909783976
2064,9.889416464803995
2286,7.177778821195636
2287,8.81126913141688
2,1, 7, 1, 0,10, 0.00,60.00,Monday
769,21.425929856054485
1889,0.0
2051,18309.344624266083
2054,2.3997551999999997
2055,1.052983572346408
2056,1.346771627653592
2057,9.151476764763166
2058,10.971447262904258
2064,9.889416464803995
2286,6.700000005584965
2287,8.57364723683697
2,1, 7, 1, 0,11, 0.00,60.00,Monday
769,21.860473352335956
1889,0.0
2051,21187.99709081999
2054,2.3997551999999997
2055,1.2355518100194547
2056,1.164203389980545
2057,8.78975538028571
2058,10.895613395655828
2064,9.889416464803995
2286,6.699999999999993
2287,8.859528265182313
2,1, 7, 1, 0,12, 0.00,60.00,Monday
769,22.4090571933055
1889,0.0
2051,24671.600106271977
2054,2.3997551999999997
2055,1.4724762944046062
2056,0.9272789055953938
2057,8.332217846778584
2058,10.783933738152014
2064,9.889416464803995
2286,6.699999999999993
2287,9.205377942829477
2,1, 7, 1, 0,13, 0.00,60.00,Monday
769,22.428116739171928
1889,0.0
2051,25399.258236604182
2054,2.3997551999999997
2055,1.4977718080922052
2056,0.9019833919077951
2057,8.306387086960193
2058,10.83039536433757
2064,9.889416464803995
2286,6.699999999999993
2287,9.277669865961612
2,1, 7, 1, 0,14, 0.00,60.00,Monday
769,22.351161241828814
1889,0.0
2051,24149.82134074268
2054,2.3997551999999997
2055,1.4451953104047566
2056,0.9545598895952434
2057,8.37237980821743
2058,10.772277458967884
2064,9.889416464803995
2286,6.699999999999993
2287,9.153560421612778
2,1, 7, 1, 0,15, 0.00,60.00,Monday
769,22.289778485147918
1889,0.0
2051,22573.362481942277
2054,2.3997551999999997
2055,1.3886544768783805
2056,1.0111007231216194
2057,8.426264405304517
2058,10.669543733128887
2064,9.889416464803995
2286,6.699999999999993
2287,8.996943064110953
2,1, 7, 1, 0,16, 0.00,60.00,Monday
769,22.07661626537104
1889,0.0
2051,20261.282454999473
2054,2.3997551999999997
2055,1.2687384027387046
2056,1.1310167972612955
2057,8.596672962401284
2058,10.610294505532729
2064,9.889416464803995
2286,6.699999999999993
2287,8.767288332898021
2,1, 7, 1, 0,17, 0.00,60.00,Monday
769,21.666967279362138
1889,0.0
2051,17121.782923408882
2054,2.3997551999999997
2055,1.3047936134014984
2056,1.0949615865985017
2057,8.939236406298925
2058,10.641041844632268
2064,9.889416464803995
2286,7.3823564174495959
2287,9.137834784586977
2,1, 7, 1, 0,18, 0.00,60.00,Monday
769,20.877956188191257
1889,0.0
2051,13205.767338699701
2054,2.3997551999999997
2055,1.2293167368354028
2056,1.1704384631645975
2057,9.590414820033868
2058,10.903275789001358
2064,9.889416464803995
2286,8.233382334380553
2287,9.599927905927125
2,1, 7, 1, 0,19, 0.00,60.00,Monday
769,20.444080443031099
1889,0.0
2051,12270.971192986883
2054,2.3997551999999997
2055,1.04295663583727
2056,1.3567985641627297
2057,9.958158562234539
2058,11.178237349205889
2064,16.575476608092
2286,8.2384173912346
2287,9.512187346973738
2,1, 7, 1, 0,20, 0.00,60.00,Monday
769,20.14611071379162
1889,0.0
2051,10935.010788598005
2054,2.3997551999999997
2055,1.2706736661361798
2056,1.1290815338638208
2057,10.206547635353165
2058,11.293873147237868
2064,28.526874611202549
2286,9.03786045854592
2287,10.178881093620728
2,1, 7, 1, 0,21, 0.00,60.00,Monday
769,19.8418880946979
1889,0.0
2051,8856.44272254204
2054,2.3997551999999997
2055,1.5351667288003606
2056,0.8645884711996388
2057,10.462478149666414
2058,11.343186293155928
2064,28.213693945142688
2286,9.873288190102727
2287,10.80769539201496
2,1, 7, 1, 0,22, 0.00,60.00,Monday
769,19.73358638198032
1889,0.0
2051,8221.936893593249
2054,2.3997551999999997
2055,1.3942433439692124
2056,1.0055118560307877
2057,10.554574509744436
2058,11.372207656585259
2064,25.062937971712289
2286,9.868789815972605
2287,10.740123437523636
2,1, 7, 1, 0,23, 0.00,60.00,Monday
769,19.664181079522895
1889,0.0
2051,7811.456772029183
2054,2.3997551999999997
2055,1.4557039248823463
2056,0.9440512751176537
2057,10.612201246694536
2058,11.389026894706122
2064,11.991788667286974
2286,10.01977175868037
2287,10.850298767639329
2,1, 7, 1, 0,24, 0.00,60.00,Monday
769,19.62158608050013
1889,0.0
2051,8110.302717074399
2054,2.3997551999999997
2055,1.4388232001170785
2056,0.9609319998829214
2057,10.648095473996028
2058,11.454648777642716
2064,11.991788667286974
2286,10.019819819819825
2287,10.880075036413479
2,2, 7, 2, 0, 1, 0.00,60.00,Tuesday
769,19.52862392239644
1889,0.0
2051,8103.663458847648
2054,2.3997551999999997
2055,1.3656201143965395
2056,1.034135085603461
2057,10.724739273841044
2058,11.530649997566988
2064,11.991788667286974
2286,10.019819819819825
2287,10.8794336352224
2,2, 7, 2, 0, 2, 0.00,60.00,Tuesday
769,19.48105098829516
1889,0.0
2051,8264.176181338758
2054,2.3997551999999997
2055,1.3407355377750515
2056,1.0590196622249486
2057,10.765198444042172
2058,11.587081690837838
2064,11.991788667286974
2286,10.019819819819825
2287,10.895406780598356
2,2, 7, 2, 0, 3, 0.00,60.00,Tuesday
769,19.416602454834785
1889,0.0
2051,8022.929147700242
2054,2.3997551999999997
2055,1.5552790333822913
2056,0.8444761666177088
2057,10.818191927831374
2058,11.616094857883012
2064,11.991788667286974
2286,10.287888412389304
2287,11.139495871448398
2,2, 7, 2, 0, 4, 0.00,60.00,Tuesday
769,19.338165836436688
1889,0.0
2051,7618.88741630349
2054,2.3997551999999997
2055,1.6313370977165478
2056,0.7684181022834513
2057,10.884170530908636
2058,11.641904747909427
2064,11.991788667286974
2286,10.442927392517003
2287,11.254367153329984
2,2, 7, 2, 0, 5, 0.00,60.00,Tuesday
769,19.296352245467948
1889,0.0
2051,7315.029636365608
2054,2.3997551999999997
2055,1.4100641505609138
2056,0.9896910494390856
2057,10.919221020603962
2058,11.646742469624153
2064,11.991788667286974
2286,10.317157168066668
2287,11.098384700025365
2,2, 7, 2, 0, 6, 0.00,60.00,Tuesday
769,19.285336639732404
1889,0.0
2051,7302.998229834628
2054,2.3997551999999997
2055,1.398766950490627
2056,1.0009882495093734
2057,10.929026122402274
2058,11.655353029660273
2064,11.991788667286974
2286,10.31711711711712
2287,11.097150258078976
2,2, 7, 2, 0, 7, 0.00,60.00,Tuesday
769,19.41874434453859
1889,0.0
2051,7885.501809124323
2054,2.3997551999999997
2055,1.402454096021209
2056,0.9973011039787912
2057,10.8211365584164
2058,11.605372220934929
2064,12.133405654565206
2286,10.17089788480649
2287,11.008838121639469
2,2, 7, 2, 0, 8, 0.00,60.00,Tuesday
769,19.778942060567286
1889,0.0
2051,10568.328209199117
2054,2.3997551999999997
2055,1.2819539955456497
2056,1.1178012044543502
2057,10.522920757788203
2058,11.573879846836276
2064,11.991250899754997
2286,9.48373069582031
2287,10.58838977279148
2,2, 7, 2, 0, 9, 0.00,60.00,Tuesday
769,20.76858163505071
1889,0.0
2051,15325.537851072042
2054,2.3997551999999997
2055,1.2732413109373242
2056,1.1265138890626759
2057,9.708617099386205
2058,11.232271848232916
2064,11.850571510735259
2286,8.247549536458142
2287,9.824890937495815
2,2, 7, 2, 0,10, 0.00,60.00,Tuesday
769,21.234449178393314
1889,0.0
2051,16856.304495781966
2054,2.3997551999999997
2055,1.1183643022487302
2056,1.2813908977512699
2057,9.309678915261584
2058,10.985305258189273
2064,11.850571510735259
2286,7.27449803509032
2287,9.003803947085098
2,2, 7, 2, 0,11, 0.00,60.00,Tuesday
769,21.664096101457809
1889,0.0
2051,20029.390547223462
2054,2.3997551999999997
2055,1.1786352570286297
2056,1.2211199429713709
2057,8.95311126222986
2058,10.943923887462713
2064,11.850571510735259
2286,6.783661685662575
2287,8.828147488378712
2,2, 7, 2, 0,12, 0.00,60.00,Tuesday
769,22.14303287947466
1889,0.0
2051,23301.879400315476
2054,2.3997551999999997
2055,1.3642353079582648
2056,1.035519892041736
2057,8.5538575327346
2058,10.869630914765076
2064,11.850571510735259
2286,6.699999999999993
2287,9.06943940455352
2,2, 7, 2, 0,13, 0.00,60.00,Tuesday
769,22.25223393407428
1889,0.0
2051,24347.65113074105
2054,2.3997551999999997
2055,1.4212145371097794
2056,0.9785406628902209
2057,8.456403804452876
2058,10.876031162662903
2064,11.850571510735259
2286,6.699999999999993
2287,9.173291634494176
2,2, 7, 2, 0,14, 0.00,60.00,Tuesday
769,22.663125568025856
1889,0.0
2051,26470.560657814884
2054,2.3997551999999997
2055,1.5912242664083476
2056,0.8085309335916521
2057,8.118733632106859
2058,10.749035621069443
2064,11.850571510735259
2286,6.699999999999993
2287,9.383960215870097
2,2, 7, 2, 0,15, 0.00,60.00,Tuesday
769,22.60134917650854
1889,0.0
2051,24903.726366823426
2054,2.3997551999999997
2055,1.540388301530628
2056,0.8593668984693721
2057,8.16405790217641
2058,10.638705846111252
2064,11.850571510735259
2286,6.699999999999993
2287,9.228306982712779
2,2, 7, 2, 0,16, 0.00,60.00,Tuesday
769,22.53582723933575
1889,0.0
2051,23577.87168585835
2054,2.3997551999999997
2055,1.4892431611494346
2056,0.9105120388505654
2057,8.218336975203777
2058,10.561278477834568
2064,11.850571510735259
2286,6.699999999999993
2287,9.096601513765569
2,2, 7, 2, 0,17, 0.00,60.00,Tuesday
769,22.356652591296805
1889,0.0
2051,21233.925274799927
2054,2.3997551999999997
2055,1.3746716408407558
2056,1.0250835591592445
2057,8.36684930772425
2058,10.47697654042472
2064,11.850571510735259
2286,6.699999999999993
2287,8.863789904454539
2,2, 7, 2, 0,18, 0.00,60.00,Tuesday
769,21.600284333409733
1889,0.0
2051,17580.98563209046
2054,2.3997551999999997
2055,1.0732450456639838
2056,1.3265101543360159
2057,8.987476437711463
2058,10.734951166685614
2064,11.850571510735259
2286,6.699999999999993
2287,8.501148522543991
2,2, 7, 2, 0,19, 0.00,60.00,Tuesday
769,21.022886095115739
1889,0.0
2051,15538.825687736118
2054,2.3997551999999997
2055,0.8891559319350721
2056,1.5105992680649272
2057,9.472769437061139
2058,11.017512591638062
2064,15.193148398786244
2286,6.699999999999993
2287,8.298425647654632
2,2, 7, 2, 0,20, 0.00,60.00,Tuesday
769,20.580810874131978
1889,0.0
2051,13011.643175732179
2054,2.3997551999999997
2055,0.7462763497827966
2056,1.6534788502172036
2057,9.843541503950288
2058,11.137212805845696
2064,30.00591440502599
2286,6.806747806659074
2287,8.154108248466513
2,2, 7, 2, 0,21, 0.00,60.00,Tuesday
769,20.18587956662664
1889,0.0
2051,10403.39944566623
2054,2.3997551999999997
2055,0.7701708373932978
2056,1.629584362606702
2057,10.173840970076693
2058,11.208296379578963
2064,29.85405356892812
2286,7.8053358271082369
2287,8.893485856957325
2,2, 7, 2, 0,22, 0.00,60.00,Tuesday
769,19.975199890975668
1889,0.0
2051,9202.764785856856
2054,2.3997551999999997
2055,0.8421322836062433
2056,1.557622916393756
2057,10.352724279825337
2058,11.267843229663063
2064,25.89299528502728
2286,8.506349810575625
2287,9.475166131180823
2,2, 7, 2, 0,23, 0.00,60.00,Tuesday
769,19.896053310262486
1889,0.0
2051,8770.997308802565
2054,2.3997551999999997
2055,0.8848739490813068
2056,1.5148812509186925
2057,10.418586432615184
2058,11.290787034478053
2064,12.674848581341056
2286,8.778611613793512
2287,9.704510599203568
2,2, 7, 2, 0,24, 0.00,60.00,Tuesday
769,19.786676929559687
1889,0.0
2051,8195.55292446322
2054,2.3997551999999997
2055,0.9835656007507018
2056,1.416189599249298
2057,10.509449086453165
2058,11.324447825509309
2064,11.975523458056959
2286,9.197750261159757
2287,10.066448780922551
End of Data
 Number of Records Written=        1056
