Program Version,EnergyPlus, Version 9.5.0-de239b2e5f, YMD=2021.07.16 04:58
1,5,Environment Title[],Latitude[deg],Longitude[deg],Time Zone[],Elevation[m]
2,8,Day of Simulation[],Month[],Day of Month[],DST Indicator[1=yes 0=no],Hour[],StartMinute[],EndMinute[],DayType
3,5,Cumulative Day of Simulation[],Month[],Day of Month[],DST Indicator[1=yes 0=no],DayType  ! When Daily Report Variables Requested
4,2,Cumulative Days of Simulation[],Month[]  ! When Monthly Report Variables Requested
5,1,Cumulative Days of Simulation[] ! When Run Period Report Variables Requested
6,1,Calendar Year of Simulation[] ! When Annual Report Variables Requested
651,1,PERIMETER_BOT_ZN_1,Zone Mean Air Temperature [C] !Hourly
1716,1,PERI1_TOP_LOTEMP,Zone Radiant HVAC Cooling Rate [W] !Hourly
End of Data Dictionary
1,ATLANTA-HARTSFIELD.JACKSON.INTL.AP_GA_USA ANN HTG 99.6% CONDNS DB,  33.63, -84.43,  -5.00, 308.00
2,1, 1,21, 0, 1, 0.00,60.00,WinterDesignDay
651,16.051292496802814
1716,0.0
2,1, 1,21, 0, 2, 0.00,60.00,WinterDesignDay
651,16.04967177145685
1716,0.0
2,1, 1,21, 0, 3, 0.00,60.00,WinterDesignDay
651,16.049873333433469
1716,0.0
2,1, 1,21, 0, 4, 0.00,60.00,WinterDesignDay
651,16.049194020368377
1716,0.0
2,1, 1,21, 0, 5, 0.00,60.00,WinterDesignDay
651,16.049710385137435
1716,0.0
2,1, 1,21, 0, 6, 0.00,60.00,WinterDesignDay
651,16.04868260858905
1716,0.0
2,1, 1,21, 0, 7, 0.00,60.00,WinterDesignDay
651,16.092909520184798
1716,0.0
2,1, 1,21, 0, 8, 0.00,60.00,WinterDesignDay
651,16.05122271762102
1716,0.0
2,1, 1,21, 0, 9, 0.00,60.00,WinterDesignDay
651,16.058710730765893
1716,0.0
2,1, 1,21, 0,10, 0.00,60.00,WinterDesignDay
651,16.053794298409128
1716,0.0
2,1, 1,21, 0,11, 0.00,60.00,WinterDesignDay
651,16.04848095332204
1716,0.0
2,1, 1,21, 0,12, 0.00,60.00,WinterDesignDay
651,16.053891404911579
1716,0.0
2,1, 1,21, 0,13, 0.00,60.00,WinterDesignDay
651,16.057687116175669
1716,0.0
2,1, 1,21, 0,14, 0.00,60.00,WinterDesignDay
651,16.052163085869624
1716,0.0
2,1, 1,21, 0,15, 0.00,60.00,WinterDesignDay
651,16.051593652584953
1716,0.0
2,1, 1,21, 0,16, 0.00,60.00,WinterDesignDay
651,16.05849190266736
1716,0.0
2,1, 1,21, 0,17, 0.00,60.00,WinterDesignDay
651,16.05733374460486
1716,0.0
2,1, 1,21, 0,18, 0.00,60.00,WinterDesignDay
651,16.052558928224778
1716,0.0
2,1, 1,21, 0,19, 0.00,60.00,WinterDesignDay
651,16.041961590605493
1716,0.0
2,1, 1,21, 0,20, 0.00,60.00,WinterDesignDay
651,16.045137506644087
1716,0.0
2,1, 1,21, 0,21, 0.00,60.00,WinterDesignDay
651,16.037761904783687
1716,0.0
2,1, 1,21, 0,22, 0.00,60.00,WinterDesignDay
651,16.05198722233478
1716,0.0
2,1, 1,21, 0,23, 0.00,60.00,WinterDesignDay
651,16.05050458968803
1716,0.0
2,1, 1,21, 0,24, 0.00,60.00,WinterDesignDay
651,16.052974156462726
1716,0.0
1,ATLANTA-HARTSFIELD.JACKSON.INTL.AP_GA_USA ANN CLG .4% CONDNS DB=>MWB,  33.63, -84.43,  -5.00, 308.00
2,1, 7,21, 0, 1, 0.00,60.00,SummerDesignDay
651,19.17655478766305
1716,10105.154790435003
2,1, 7,21, 0, 2, 0.00,60.00,SummerDesignDay
651,19.078779818248035
1716,9960.953282134926
2,1, 7,21, 0, 3, 0.00,60.00,SummerDesignDay
651,19.002238182485443
1716,9819.70934524897
2,1, 7,21, 0, 4, 0.00,60.00,SummerDesignDay
651,18.937774058855408
1716,9686.964642892925
2,1, 7,21, 0, 5, 0.00,60.00,SummerDesignDay
651,18.881969738794525
1716,9568.109958387302
2,1, 7,21, 0, 6, 0.00,60.00,SummerDesignDay
651,18.84379441817796
1716,9507.675401340404
2,1, 7,21, 0, 7, 0.00,60.00,SummerDesignDay
651,19.203685411719719
1716,10786.312984846874
2,1, 7,21, 0, 8, 0.00,60.00,SummerDesignDay
651,19.429060221637326
1716,11073.960215637317
2,1, 7,21, 0, 9, 0.00,60.00,SummerDesignDay
651,19.75752234822421
1716,11951.011545422427
2,1, 7,21, 0,10, 0.00,60.00,SummerDesignDay
651,20.151085451893246
1716,12994.166524497397
2,1, 7,21, 0,11, 0.00,60.00,SummerDesignDay
651,20.701952540243345
1716,14570.435903934256
2,1, 7,21, 0,12, 0.00,60.00,SummerDesignDay
651,21.291107562203597
1716,16062.22166288509
2,1, 7,21, 0,13, 0.00,60.00,SummerDesignDay
651,21.750254412783275
1716,16971.574551246846
2,1, 7,21, 0,14, 0.00,60.00,SummerDesignDay
651,22.001048120439756
1716,17194.383326892257
2,1, 7,21, 0,15, 0.00,60.00,SummerDesignDay
651,22.012920074389567
1716,16741.683506744826
2,1, 7,21, 0,16, 0.00,60.00,SummerDesignDay
651,21.79729464486781
1716,15769.367594434301
2,1, 7,21, 0,17, 0.00,60.00,SummerDesignDay
651,21.456037799081874
1716,14735.46112809964
2,1, 7,21, 0,18, 0.00,60.00,SummerDesignDay
651,21.110911533004086
1716,13905.400111430545
2,1, 7,21, 0,19, 0.00,60.00,SummerDesignDay
651,20.74979300925377
1716,13036.847824508284
2,1, 7,21, 0,20, 0.00,60.00,SummerDesignDay
651,20.433922121463288
1716,12455.223399812041
2,1, 7,21, 0,21, 0.00,60.00,SummerDesignDay
651,20.16216975197126
1716,11932.062611833682
2,1, 7,21, 0,22, 0.00,60.00,SummerDesignDay
651,19.956572170881878
1716,11581.994005937831
2,1, 7,21, 0,23, 0.00,60.00,SummerDesignDay
651,19.494505564510815
1716,10238.756202393282
2,1, 7,21, 0,24, 0.00,60.00,SummerDesignDay
651,19.314540109129636
1716,10310.368507734109
1,RUNPERIOD 1,  33.63, -84.43,  -5.00, 308.00
2,1, 7, 1, 0, 1, 0.00,60.00,Sunday
651,17.992192077821298
1716,5694.919831154488
2,1, 7, 1, 0, 2, 0.00,60.00,Sunday
651,17.98943438273377
1716,5842.754612543078
2,1, 7, 1, 0, 3, 0.00,60.00,Sunday
651,17.987922698679264
1716,5720.7526655181059
2,1, 7, 1, 0, 4, 0.00,60.00,Sunday
651,17.985040109950459
1716,4870.435738030321
2,1, 7, 1, 0, 5, 0.00,60.00,Sunday
651,17.98996417573165
1716,5272.954075516172
2,1, 7, 1, 0, 6, 0.00,60.00,Sunday
651,17.990632871716917
1716,6559.014552224284
2,1, 7, 1, 0, 7, 0.00,60.00,Sunday
651,18.00389404813293
1716,8606.44266734533
2,1, 7, 1, 0, 8, 0.00,60.00,Sunday
651,18.039604589224028
1716,9514.220963016713
2,1, 7, 1, 0, 9, 0.00,60.00,Sunday
651,18.301317532293237
1716,9064.714318393962
2,1, 7, 1, 0,10, 0.00,60.00,Sunday
651,18.756281167895869
1716,10093.604743506763
2,1, 7, 1, 0,11, 0.00,60.00,Sunday
651,19.217441425434648
1716,11107.831149531841
2,1, 7, 1, 0,12, 0.00,60.00,Sunday
651,19.78843681729646
1716,12572.374872265676
2,1, 7, 1, 0,13, 0.00,60.00,Sunday
651,20.15688351856867
1716,13055.01937274186
2,1, 7, 1, 0,14, 0.00,60.00,Sunday
651,20.012437083353086
1716,11797.000079160587
2,1, 7, 1, 0,15, 0.00,60.00,Sunday
651,19.886812933739497
1716,11625.692258371773
2,1, 7, 1, 0,16, 0.00,60.00,Sunday
651,19.647034297537286
1716,10751.920939689615
2,1, 7, 1, 0,17, 0.00,60.00,Sunday
651,19.199106939689707
1716,9439.118423427313
2,1, 7, 1, 0,18, 0.00,60.00,Sunday
651,18.788452879245484
1716,8647.475527106952
2,1, 7, 1, 0,19, 0.00,60.00,Sunday
651,18.4607078354303
1716,8065.62772404222
2,1, 7, 1, 0,20, 0.00,60.00,Sunday
651,18.14296239627889
1716,6562.951321447754
2,1, 7, 1, 0,21, 0.00,60.00,Sunday
651,17.996368601965459
1716,4650.949050158224
2,1, 7, 1, 0,22, 0.00,60.00,Sunday
651,17.990511998186034
1716,4583.5144181194759
2,1, 7, 1, 0,23, 0.00,60.00,Sunday
651,17.98794666296676
1716,5071.366154531302
2,1, 7, 1, 0,24, 0.00,60.00,Sunday
651,17.989215153258419
1716,5342.262677500227
2,2, 7, 2, 0, 1, 0.00,60.00,Monday
651,17.992652425548046
1716,6365.939050959972
2,2, 7, 2, 0, 2, 0.00,60.00,Monday
651,17.988071664833585
1716,5310.648847821112
2,2, 7, 2, 0, 3, 0.00,60.00,Monday
651,17.98791988692975
1716,4636.970613237698
2,2, 7, 2, 0, 4, 0.00,60.00,Monday
651,17.98617886760419
1716,4891.518761321054
2,2, 7, 2, 0, 5, 0.00,60.00,Monday
651,17.984287409875518
1716,4363.127921007093
2,2, 7, 2, 0, 6, 0.00,60.00,Monday
651,17.98893604407612
1716,5474.300928667667
2,2, 7, 2, 0, 7, 0.00,60.00,Monday
651,18.009999449443936
1716,10350.579217533665
2,2, 7, 2, 0, 8, 0.00,60.00,Monday
651,18.915174762156174
1716,12341.047301084838
2,2, 7, 2, 0, 9, 0.00,60.00,Monday
651,19.178969079649997
1716,10490.04291493276
2,2, 7, 2, 0,10, 0.00,60.00,Monday
651,19.62765167454829
1716,11574.959960695067
2,2, 7, 2, 0,11, 0.00,60.00,Monday
651,20.110602098765928
1716,12748.17470265455
2,2, 7, 2, 0,12, 0.00,60.00,Monday
651,20.659766328212706
1716,14113.673777883534
2,2, 7, 2, 0,13, 0.00,60.00,Monday
651,22.76301451091347
1716,20497.933595131595
2,2, 7, 2, 0,14, 0.00,60.00,Monday
651,21.5615363293382
1716,13300.031168123363
2,2, 7, 2, 0,15, 0.00,60.00,Monday
651,21.439647356820989
1716,14524.711168460173
2,2, 7, 2, 0,16, 0.00,60.00,Monday
651,21.413846427572709
1716,14614.530707893744
2,2, 7, 2, 0,17, 0.00,60.00,Monday
651,21.243485584710105
1716,14031.942448631762
2,2, 7, 2, 0,18, 0.00,60.00,Monday
651,22.75421068895166
1716,19073.141305452547
2,2, 7, 2, 0,19, 0.00,60.00,Monday
651,20.172026475770378
1716,7680.462416805171
2,2, 7, 2, 0,20, 0.00,60.00,Monday
651,18.92300922085931
1716,7128.13797542793
2,2, 7, 2, 0,21, 0.00,60.00,Monday
651,18.37819148895917
1716,7342.353513861129
2,2, 7, 2, 0,22, 0.00,60.00,Monday
651,18.06461522455408
1716,7243.151800397402
2,2, 7, 2, 0,23, 0.00,60.00,Monday
651,18.000879866836234
1716,5477.221329586738
2,2, 7, 2, 0,24, 0.00,60.00,Monday
651,17.99629835394196
1716,5350.541212650597
End of Data
 Number of Records Written=         192
