Program Version,EnergyPlus, Version 9.4.0-998c4b761e, YMD=2021.07.13 23:06
1,5,Environment Title[],Latitude[deg],Longitude[deg],Time Zone[],Elevation[m]
2,8,Day of Simulation[],Month[],Day of Month[],DST Indicator[1=yes 0=no],Hour[],StartMinute[],EndMinute[],DayType
3,5,Cumulative Day of Simulation[],Month[],Day of Month[],DST Indicator[1=yes 0=no],DayType  ! When Daily Meters Requested
4,2,Cumulative Days of Simulation[],Month[]  ! When Monthly Meters Requested
5,1,Cumulative Days of Simulation[] ! When Run Period Meters Requested
6,1,Calendar Year of Simulation[] ! When Annual Meters Requested
59,1,Electricity:Facility [J] !Hourly
1716,1,ElectricityNet:Facility [J] !Hourly
95,1,InteriorLights:Electricity [J] !Hourly
512,1,InteriorEquipment:Electricity [J] !Hourly
End of Data Dictionary
1,ATLANTA-HARTSFIELD.JACKSON.INTL.AP_GA_USA ANN HTG 99.6% CONDNS DB,  33.63, -84.43,  -5.00, 308.00
2,1, 1,21, 0, 1, 0.00,60.00,WinterDesignDay
59,283460070.60830947
95,0.0
512,0.0
1716,283460070.60830947
2,1, 1,21, 0, 2, 0.00,60.00,WinterDesignDay
59,283472070.60830947
95,0.0
512,0.0
1716,283472070.60830947
2,1, 1,21, 0, 3, 0.00,60.00,WinterDesignDay
59,283544070.60830947
95,0.0
512,0.0
1716,283544070.60830947
2,1, 1,21, 0, 4, 0.00,60.00,WinterDesignDay
59,283418070.60830947
95,0.0
512,0.0
1716,283418070.60830947
2,1, 1,21, 0, 5, 0.00,60.00,WinterDesignDay
59,283454070.60830947
95,0.0
512,0.0
1716,283454070.60830947
2,1, 1,21, 0, 6, 0.00,60.00,WinterDesignDay
59,283466070.60830947
95,0.0
512,0.0
1716,283466070.60830947
2,1, 1,21, 0, 7, 0.00,60.00,WinterDesignDay
59,293664330.60830947
95,0.0
512,0.0
1716,293664330.60830947
2,1, 1,21, 0, 8, 0.00,60.00,WinterDesignDay
59,288993480.60830947
95,0.0
512,0.0
1716,288993480.60830947
2,1, 1,21, 0, 9, 0.00,60.00,WinterDesignDay
59,274884930.6083094
95,0.0
512,0.0
1716,274884930.6083094
2,1, 1,21, 0,10, 0.00,60.00,WinterDesignDay
59,274902930.6083094
95,0.0
512,0.0
1716,274902930.6083094
2,1, 1,21, 0,11, 0.00,60.00,WinterDesignDay
59,274968930.6083094
95,0.0
512,0.0
1716,274968930.6083094
2,1, 1,21, 0,12, 0.00,60.00,WinterDesignDay
59,274890930.6083094
95,0.0
512,0.0
1716,274890930.6083094
2,1, 1,21, 0,13, 0.00,60.00,WinterDesignDay
59,274884930.6083094
95,0.0
512,0.0
1716,274884930.6083094
2,1, 1,21, 0,14, 0.00,60.00,WinterDesignDay
59,274866930.6083094
95,0.0
512,0.0
1716,274866930.6083094
2,1, 1,21, 0,15, 0.00,60.00,WinterDesignDay
59,274890930.6083094
95,0.0
512,0.0
1716,274890930.6083094
2,1, 1,21, 0,16, 0.00,60.00,WinterDesignDay
59,274980930.6083094
95,0.0
512,0.0
1716,274980930.6083094
2,1, 1,21, 0,17, 0.00,60.00,WinterDesignDay
59,274890930.6083094
95,0.0
512,0.0
1716,274890930.6083094
2,1, 1,21, 0,18, 0.00,60.00,WinterDesignDay
59,277416450.6083094
95,0.0
512,0.0
1716,277416450.6083094
2,1, 1,21, 0,19, 0.00,60.00,WinterDesignDay
59,293994330.60830947
95,0.0
512,0.0
1716,293994330.60830947
2,1, 1,21, 0,20, 0.00,60.00,WinterDesignDay
59,286053450.60830947
95,0.0
512,0.0
1716,286053450.60830947
2,1, 1,21, 0,21, 0.00,60.00,WinterDesignDay
59,285969450.60830947
95,0.0
512,0.0
1716,285969450.60830947
2,1, 1,21, 0,22, 0.00,60.00,WinterDesignDay
59,285999450.60830947
95,0.0
512,0.0
1716,285999450.60830947
2,1, 1,21, 0,23, 0.00,60.00,WinterDesignDay
59,286065450.60830947
95,0.0
512,0.0
1716,286065450.60830947
2,1, 1,21, 0,24, 0.00,60.00,WinterDesignDay
59,286011450.60830947
95,0.0
512,0.0
1716,286011450.60830947
1,ATLANTA-HARTSFIELD.JACKSON.INTL.AP_GA_USA ANN CLG .4% CONDNS DB=>MWB,  33.63, -84.43,  -5.00, 308.00
2,1, 7,21, 0, 1, 0.00,60.00,SummerDesignDay
59,732602292.0216683
95,152517470.7542746
512,224813060.55296675
1716,732602292.0216683
2,1, 7,21, 0, 2, 0.00,60.00,SummerDesignDay
59,732604325.8569849
95,152517470.7542746
512,224813060.55296675
1716,732604325.8569849
2,1, 7,21, 0, 3, 0.00,60.00,SummerDesignDay
59,732700325.8569844
95,152517470.7542746
512,224813060.55296675
1716,732700325.8569844
2,1, 7,21, 0, 4, 0.00,60.00,SummerDesignDay
59,732519766.6451805
95,152517470.7542746
512,224813060.55296675
1716,732519766.6451805
2,1, 7,21, 0, 5, 0.00,60.00,SummerDesignDay
59,732593800.4804975
95,152517470.7542746
512,224813060.55296675
1716,732593800.4804975
2,1, 7,21, 0, 6, 0.00,60.00,SummerDesignDay
59,730475430.0742142
95,152399851.51267544
512,224813060.55296675
1716,730475430.0742142
2,1, 7,21, 0, 7, 0.00,60.00,SummerDesignDay
59,701237270.4793491
95,129723979.24717574
512,224813060.55296675
1716,701237270.4793491
2,1, 7,21, 0, 8, 0.00,60.00,SummerDesignDay
59,691923674.9465803
95,120394417.54972403
512,224813060.55296675
1716,691923674.9465803
2,1, 7,21, 0, 9, 0.00,60.00,SummerDesignDay
59,691365459.7191862
95,119991185.40467149
512,224813060.55296675
1716,691365459.7191862
2,1, 7,21, 0,10, 0.00,60.00,SummerDesignDay
59,691317459.7191864
95,119991185.40467149
512,224813060.55296675
1716,691317459.7191864
2,1, 7,21, 0,11, 0.00,60.00,SummerDesignDay
59,691216476.6368449
95,119991185.40467149
512,224813060.55296675
1716,691216476.6368449
2,1, 7,21, 0,12, 0.00,60.00,SummerDesignDay
59,691204476.6368449
95,119991185.40467149
512,224813060.55296675
1716,691204476.6368449
2,1, 7,21, 0,13, 0.00,60.00,SummerDesignDay
59,691305002.0133324
95,119991185.40467149
512,224813060.55296675
1716,691305002.0133323
2,1, 7,21, 0,14, 0.00,60.00,SummerDesignDay
59,691707662.7310872
95,119991185.40467149
512,224813060.55296675
1716,691707662.7310872
2,1, 7,21, 0,15, 0.00,60.00,SummerDesignDay
59,691978221.9428916
95,119991185.40467149
512,224813060.55296675
1716,691978221.9428916
2,1, 7,21, 0,16, 0.00,60.00,SummerDesignDay
59,692141238.86055
95,119991185.40467149
512,224813060.55296675
1716,692141238.86055
2,1, 7,21, 0,17, 0.00,60.00,SummerDesignDay
59,692115205.0252332
95,119991185.40467149
512,224813060.55296675
1716,692115205.0252332
2,1, 7,21, 0,18, 0.00,60.00,SummerDesignDay
59,691859325.452368
95,120025441.17307365
512,224813060.55296675
1716,691859325.452368
2,1, 7,21, 0,19, 0.00,60.00,SummerDesignDay
59,694133995.7458876
95,122515297.56083551
512,224813060.55296675
1716,694133995.7458876
2,1, 7,21, 0,20, 0.00,60.00,SummerDesignDay
59,721663084.3249029
95,146697555.81048496
512,224813060.55296675
1716,721663084.3249028
2,1, 7,21, 0,21, 0.00,60.00,SummerDesignDay
59,735301739.6923013
95,152517470.7542746
512,224813060.55296675
1716,735301739.6923013
2,1, 7,21, 0,22, 0.00,60.00,SummerDesignDay
59,735349739.6923013
95,152517470.7542746
512,224813060.55296675
1716,735349739.6923013
2,1, 7,21, 0,23, 0.00,60.00,SummerDesignDay
59,735223638.186351
95,152517470.7542746
512,224813060.55296675
1716,735223638.186351
2,1, 7,21, 0,24, 0.00,60.00,SummerDesignDay
59,735287705.8569845
95,152517470.7542746
512,224813060.55296675
1716,735287705.8569845
1,RUNPERIOD 1,  33.63, -84.43,  -5.00, 308.00
2,1, 7, 1, 0, 1, 0.00,60.00,Monday
59,77679378.31798943
95,7625873.53771374
512,44533202.00181081
1716,77679378.31798943
2,1, 7, 1, 0, 2, 0.00,60.00,Monday
59,67917571.01600939
95,7625873.53771374
512,44533202.00181081
1716,67917571.01600939
2,1, 7, 1, 0, 3, 0.00,60.00,Monday
59,60650215.539524439
95,7625873.53771374
512,44533202.00181081
1716,60650215.539524439
2,1, 7, 1, 0, 4, 0.00,60.00,Monday
59,60650215.539524439
95,7625873.53771374
512,44533202.00181081
1716,60650215.539524439
2,1, 7, 1, 0, 5, 0.00,60.00,Monday
59,69128796.92875691
95,7625873.53771374
512,44533202.00181081
1716,69128796.92875691
2,1, 7, 1, 0, 6, 0.00,60.00,Monday
59,111757197.30105266
95,14835019.70208967
512,44533202.00181081
1716,111757197.30105266
2,1, 7, 1, 0, 7, 0.00,60.00,Monday
59,141024828.79095686
95,10806640.641844433
512,55180531.87831209
1716,141024828.79095686
2,1, 7, 1, 0, 8, 0.00,60.00,Monday
59,472605873.8711098
95,31270023.132256438
512,95796493.41677362
1716,472605873.8711098
2,1, 7, 1, 0, 9, 0.00,60.00,Monday
59,644394879.0100455
95,93124323.85391505
512,204227663.7591696
1716,644394879.0100455
2,1, 7, 1, 0,10, 0.00,60.00,Monday
59,613555242.725825
95,93124323.85391505
512,174055806.61631225
1716,613555242.7258248
2,1, 7, 1, 0,11, 0.00,60.00,Monday
59,606685099.5092099
95,93124323.85391505
512,167093070.3525762
1716,606685099.5092096
2,1, 7, 1, 0,12, 0.00,60.00,Monday
59,613856818.8552873
95,93124323.85391505
512,174055806.61631225
1716,613856818.8552873
2,1, 7, 1, 0,13, 0.00,60.00,Monday
59,617207933.4979285
95,93124323.85391505
512,177667514.30607493
1716,617207933.4979287
2,1, 7, 1, 0,14, 0.00,60.00,Monday
59,620600183.66336
95,93124323.85391505
512,179858086.83609239
1716,620600183.66336
2,1, 7, 1, 0,15, 0.00,60.00,Monday
59,606717133.3445267
95,93124323.85391505
512,167093070.3525762
1716,606717133.3445265
2,1, 7, 1, 0,16, 0.00,60.00,Monday
59,606628106.3054327
95,93133991.36789204
512,167093070.3525762
1716,606628106.3054322
2,1, 7, 1, 0,17, 0.00,60.00,Monday
59,618029382.3777391
95,94304569.99747429
512,177537174.74818046
1716,618029382.3777391
2,1, 7, 1, 0,18, 0.00,60.00,Monday
59,540126121.4653944
95,52897696.51907077
512,140923939.57316477
1716,540126121.4653944
2,1, 7, 1, 0,19, 0.00,60.00,Monday
59,449208644.65381518
95,33000511.074774714
512,69106004.40578471
1716,449208644.6538152
2,1, 7, 1, 0,20, 0.00,60.00,Monday
59,447439273.67839786
95,38899677.792273219
512,59822356.054136309
1716,447439273.67839786
2,1, 7, 1, 0,21, 0.00,60.00,Monday
59,443815864.53483226
95,26303943.895732464
512,59822356.054136309
1716,443815864.53483226
2,1, 7, 1, 0,22, 0.00,60.00,Monday
59,165921376.05538688
95,26303943.895732464
512,55180531.87831209
1716,165921376.05538688
2,1, 7, 1, 0,23, 0.00,60.00,Monday
59,155723629.3440034
95,13151971.947866232
512,55180531.87831209
1716,155723629.34400336
2,1, 7, 1, 0,24, 0.00,60.00,Monday
59,146084592.61709506
95,6575985.973933116
512,55180531.87831209
1716,146084592.61709506
2,2, 7, 2, 0, 1, 0.00,60.00,Tuesday
59,77679378.31798943
95,7625873.53771374
512,44533202.00181081
1716,77679378.31798943
2,2, 7, 2, 0, 2, 0.00,60.00,Tuesday
59,60650215.539524439
95,7625873.53771374
512,44533202.00181081
1716,60650215.539524439
2,2, 7, 2, 0, 3, 0.00,60.00,Tuesday
59,60650215.539524439
95,7625873.53771374
512,44533202.00181081
1716,60650215.539524439
2,2, 7, 2, 0, 4, 0.00,60.00,Tuesday
59,60650215.539524439
95,7625873.53771374
512,44533202.00181081
1716,60650215.539524439
2,2, 7, 2, 0, 5, 0.00,60.00,Tuesday
59,69128796.92875691
95,7625873.53771374
512,44533202.00181081
1716,69128796.92875691
2,2, 7, 2, 0, 6, 0.00,60.00,Tuesday
59,85328954.59394565
95,15251747.07542748
512,44533202.00181081
1716,85328954.59394565
2,2, 7, 2, 0, 7, 0.00,60.00,Tuesday
59,133318655.94563256
95,12100348.64949286
512,55180531.87831209
1716,133318655.94563256
2,2, 7, 2, 0, 8, 0.00,60.00,Tuesday
59,472368435.2022301
95,31140584.46337594
512,95796493.41677362
1716,472368435.2022301
2,2, 7, 2, 0, 9, 0.00,60.00,Tuesday
59,644559370.5512164
95,93124323.85391505
512,204227663.7591696
1716,644559370.5512164
2,2, 7, 2, 0,10, 0.00,60.00,Tuesday
59,613650225.8081665
95,93124323.85391505
512,174055806.61631225
1716,613650225.8081665
2,2, 7, 2, 0,11, 0.00,60.00,Tuesday
59,606996082.5915516
95,93124323.85391505
512,167093070.3525762
1716,606996082.5915514
2,2, 7, 2, 0,12, 0.00,60.00,Tuesday
59,613627242.7258247
95,93124323.85391505
512,174055806.61631225
1716,613627242.7258247
2,2, 7, 2, 0,13, 0.00,60.00,Tuesday
59,617464001.1685627
95,93124323.85391505
512,177667514.30607493
1716,617464001.1685629
2,2, 7, 2, 0,14, 0.00,60.00,Tuesday
59,620168285.1693108
95,93124323.85391505
512,179858086.83609239
1716,620168285.1693108
2,2, 7, 2, 0,15, 0.00,60.00,Tuesday
59,607161234.8504768
95,93124323.85391505
512,167093070.3525762
1716,607161234.8504768
2,2, 7, 2, 0,16, 0.00,60.00,Tuesday
59,607546353.2740854
95,93124323.85391505
512,167093070.3525762
1716,607546353.2740854
2,2, 7, 2, 0,17, 0.00,60.00,Tuesday
59,618060881.5402278
95,93124323.85391505
512,177537174.74818046
1716,618060881.5402278
2,2, 7, 2, 0,18, 0.00,60.00,Tuesday
59,539681265.1588804
95,51749162.5771431
512,140923939.57316477
1716,539681265.1588806
2,2, 7, 2, 0,19, 0.00,60.00,Tuesday
59,447507643.6417972
95,31563153.862853268
512,69106004.40578471
1716,447507643.64179727
2,2, 7, 2, 0,20, 0.00,60.00,Tuesday
59,446221737.5818516
95,37421650.15455603
512,59822356.054136309
1716,446221737.5818516
2,2, 7, 2, 0,21, 0.00,60.00,Tuesday
59,443694389.9113199
95,26303943.895732464
512,59822356.054136309
1716,443694389.9113199
2,2, 7, 2, 0,22, 0.00,60.00,Tuesday
59,166622104.44377563
95,26303943.895732464
512,55180531.87831209
1716,166622104.44377563
2,2, 7, 2, 0,23, 0.00,60.00,Tuesday
59,156183239.30878295
95,13151971.947866232
512,55180531.87831209
1716,156183239.3087829
2,2, 7, 2, 0,24, 0.00,60.00,Tuesday
59,146358660.28772874
95,6575985.973933116
512,55180531.87831209
1716,146358660.28772874
End of Data
 Number of Records Written=         384
