Program Version,EnergyPlus, Version 9.3.0-Unknown, YMD=2021.06.30 12:53
1,5,Environment Title[],Latitude[deg],Longitude[deg],Time Zone[],Elevation[m]
2,8,Day of Simulation[],Month[],Day of Month[],DST Indicator[1=yes 0=no],Hour[],StartMinute[],EndMinute[],DayType
3,5,Cumulative Day of Simulation[],Month[],Day of Month[],DST Indicator[1=yes 0=no],DayType  ! When Daily Meters Requested
4,2,Cumulative Days of Simulation[],Month[]  ! When Monthly Meters Requested
5,1,Cumulative Days of Simulation[] ! When Run Period Meters Requested
6,1,Calendar Year of Simulation[] ! When Annual Meters Requested
59,1,Electricity:Facility [J] !Hourly
1733,1,ElectricityNet:Facility [J] !Hourly
95,1,InteriorLights:Electricity [J] !Hourly
512,1,InteriorEquipment:Electricity [J] !Hourly
End of Data Dictionary
1,ATLANTA-HARTSFIELD.JACKSON.INTL.AP_GA_USA ANN HTG 99.6% CONDNS DB,  30.58, -96.37,  -6.00,  96.00
2,1, 1,21, 0, 1, 0.00,60.00,WinterDesignDay
59,29652226.751137429
95,0.0
512,0.0
1733,29652226.751137429
2,1, 1,21, 0, 2, 0.00,60.00,WinterDesignDay
59,29760226.751137429
95,0.0
512,0.0
1733,29760226.751137429
2,1, 1,21, 0, 3, 0.00,60.00,WinterDesignDay
59,29700226.751137429
95,0.0
512,0.0
1733,29700226.751137429
2,1, 1,21, 0, 4, 0.00,60.00,WinterDesignDay
59,29700226.751137429
95,0.0
512,0.0
1733,29700226.751137429
2,1, 1,21, 0, 5, 0.00,60.00,WinterDesignDay
59,29646226.751137429
95,0.0
512,0.0
1733,29646226.751137429
2,1, 1,21, 0, 6, 0.00,60.00,WinterDesignDay
59,29652226.751137429
95,0.0
512,0.0
1733,29652226.751137429
2,1, 1,21, 0, 7, 0.00,60.00,WinterDesignDay
59,39298486.75113742
95,0.0
512,0.0
1733,39298486.75113742
2,1, 1,21, 0, 8, 0.00,60.00,WinterDesignDay
59,29258026.751137414
95,0.0
512,0.0
1733,29258026.751137414
2,1, 1,21, 0, 9, 0.00,60.00,WinterDesignDay
59,21005086.751137448
95,0.0
512,0.0
1733,21005086.751137448
2,1, 1,21, 0,10, 0.00,60.00,WinterDesignDay
59,21011086.75113745
95,0.0
512,0.0
1733,21011086.75113745
2,1, 1,21, 0,11, 0.00,60.00,WinterDesignDay
59,20993086.75113745
95,0.0
512,0.0
1733,20993086.75113745
2,1, 1,21, 0,12, 0.00,60.00,WinterDesignDay
59,20969086.75113745
95,0.0
512,0.0
1733,20969086.75113745
2,1, 1,21, 0,13, 0.00,60.00,WinterDesignDay
59,20951086.751137448
95,0.0
512,0.0
1733,20951086.751137448
2,1, 1,21, 0,14, 0.00,60.00,WinterDesignDay
59,20963086.751137448
95,0.0
512,0.0
1733,20963086.751137448
2,1, 1,21, 0,15, 0.00,60.00,WinterDesignDay
59,21035086.751137448
95,0.0
512,0.0
1733,21035086.751137448
2,1, 1,21, 0,16, 0.00,60.00,WinterDesignDay
59,21059086.751137448
95,0.0
512,0.0
1733,21059086.751137448
2,1, 1,21, 0,17, 0.00,60.00,WinterDesignDay
59,20987086.75113745
95,0.0
512,0.0
1733,20987086.75113745
2,1, 1,21, 0,18, 0.00,60.00,WinterDesignDay
59,25349746.751137448
95,0.0
512,0.0
1733,25349746.751137448
2,1, 1,21, 0,19, 0.00,60.00,WinterDesignDay
59,40588486.75113741
95,0.0
512,0.0
1733,40588486.75113741
2,1, 1,21, 0,20, 0.00,60.00,WinterDesignDay
59,32173606.751137426
95,0.0
512,0.0
1733,32173606.751137426
2,1, 1,21, 0,21, 0.00,60.00,WinterDesignDay
59,32251606.751137426
95,0.0
512,0.0
1733,32251606.751137426
2,1, 1,21, 0,22, 0.00,60.00,WinterDesignDay
59,32209606.751137426
95,0.0
512,0.0
1733,32209606.751137426
2,1, 1,21, 0,23, 0.00,60.00,WinterDesignDay
59,32191606.751137426
95,0.0
512,0.0
1733,32191606.751137426
2,1, 1,21, 0,24, 0.00,60.00,WinterDesignDay
59,32251606.751137426
95,0.0
512,0.0
1733,32251606.751137426
1,ATLANTA-HARTSFIELD.JACKSON.INTL.AP_GA_USA ANN CLG .4% CONDNS DB=>MWB,  30.58, -96.37,  -6.00,  96.00
2,1, 7,21, 0, 1, 0.00,60.00,SummerDesignDay
59,420800717.6878884
95,152517470.7542746
512,224813060.55296675
1733,420800717.68788829
2,1, 7,21, 0, 2, 0.00,60.00,SummerDesignDay
59,421280717.6878884
95,152517470.7542746
512,224813060.55296675
1733,421280717.68788829
2,1, 7,21, 0, 3, 0.00,60.00,SummerDesignDay
59,421298717.6878884
95,152517470.7542746
512,224813060.55296675
1733,421298717.68788829
2,1, 7,21, 0, 4, 0.00,60.00,SummerDesignDay
59,421322717.6878884
95,152517470.7542746
512,224813060.55296675
1733,421322717.6878882
2,1, 7,21, 0, 5, 0.00,60.00,SummerDesignDay
59,421310717.6878884
95,152517470.7542746
512,224813060.55296675
1733,421310717.6878882
2,1, 7,21, 0, 6, 0.00,60.00,SummerDesignDay
59,418260504.00351867
95,151690649.25224645
512,224813060.55296675
1733,418260504.00351867
2,1, 7,21, 0, 7, 0.00,60.00,SummerDesignDay
59,389046619.2981865
95,126362702.63622755
512,224813060.55296675
1733,389046619.2981865
2,1, 7,21, 0, 8, 0.00,60.00,SummerDesignDay
59,386383893.3446718
95,120208349.70381399
512,224813060.55296675
1733,386383893.3446717
2,1, 7,21, 0, 9, 0.00,60.00,SummerDesignDay
59,386455647.4333601
95,119991185.40467149
512,224813060.55296675
1733,386455647.43336
2,1, 7,21, 0,10, 0.00,60.00,SummerDesignDay
59,386754220.97889277
95,119991185.40467149
512,224813060.55296675
1733,386754220.97889277
2,1, 7,21, 0,11, 0.00,60.00,SummerDesignDay
59,386720430.29156306
95,119991185.40467149
512,224813060.55296675
1733,386720430.29156306
2,1, 7,21, 0,12, 0.00,60.00,SummerDesignDay
59,386335424.70068177
95,119991185.40467149
512,224813060.55296675
1733,386335424.7006817
2,1, 7,21, 0,13, 0.00,60.00,SummerDesignDay
59,385887486.0435543
95,119991185.40467149
512,224813060.55296675
1733,385887486.0435543
2,1, 7,21, 0,14, 0.00,60.00,SummerDesignDay
59,386454676.42404499
95,119991185.40467149
512,224813060.55296675
1733,386454676.42404499
2,1, 7,21, 0,15, 0.00,60.00,SummerDesignDay
59,387334441.729665
95,119991185.40467149
512,224813060.55296675
1733,387334441.7296649
2,1, 7,21, 0,16, 0.00,60.00,SummerDesignDay
59,387732285.15191599
95,119991185.40467149
512,224813060.55296675
1733,387732285.1519159
2,1, 7,21, 0,17, 0.00,60.00,SummerDesignDay
59,387550874.29488047
95,119991185.40467149
512,224813060.55296675
1733,387550874.29488047
2,1, 7,21, 0,18, 0.00,60.00,SummerDesignDay
59,386898319.5782226
95,120173611.6106496
512,224813060.55296675
1733,386898319.5782225
2,1, 7,21, 0,19, 0.00,60.00,SummerDesignDay
59,390667206.87975046
95,125624200.24904058
512,224813060.55296675
1733,390667206.87975046
2,1, 7,21, 0,20, 0.00,60.00,SummerDesignDay
59,421599870.5178731
95,151287087.15344776
512,224813060.55296675
1733,421599870.5178731
2,1, 7,21, 0,21, 0.00,60.00,SummerDesignDay
59,426945597.4077057
95,152517470.7542746
512,224813060.55296675
1733,426945597.4077057
2,1, 7,21, 0,22, 0.00,60.00,SummerDesignDay
59,426920057.0472853
95,152517470.7542746
512,224813060.55296675
1733,426920057.04728528
2,1, 7,21, 0,23, 0.00,60.00,SummerDesignDay
59,423766097.6878884
95,152517470.7542746
512,224813060.55296675
1733,423766097.6878884
2,1, 7,21, 0,24, 0.00,60.00,SummerDesignDay
59,423562097.6878884
95,152517470.7542746
512,224813060.55296675
1733,423562097.68788829
1,RUNPERIOD 1,  30.58, -96.37,  -6.00,  96.00
2,1, 6, 1, 0, 1, 0.00,60.00,Sunday
59,78535905.2537275
95,7625873.53771374
512,33399901.50135806
1733,78535905.2537275
2,1, 6, 1, 0, 2, 0.00,60.00,Sunday
59,77665905.2537275
95,7625873.53771374
512,33399901.50135806
1733,77665905.2537275
2,1, 6, 1, 0, 3, 0.00,60.00,Sunday
59,75913905.25372751
95,7625873.53771374
512,33399901.50135806
1733,75913905.25372751
2,1, 6, 1, 0, 4, 0.00,60.00,Sunday
59,75241905.25372751
95,7625873.53771374
512,33399901.50135806
1733,75241905.25372751
2,1, 6, 1, 0, 5, 0.00,60.00,Sunday
59,75601905.25372751
95,7625873.53771374
512,33399901.50135806
1733,75601905.25372751
2,1, 6, 1, 0, 6, 0.00,60.00,Sunday
59,70559081.61782396
95,7355176.901810153
512,33399901.50135806
1733,70559081.61782395
2,1, 6, 1, 0, 7, 0.00,60.00,Sunday
59,76171028.67987827
95,5286639.556488497
512,41385398.908734139
1733,76171028.67987827
2,1, 6, 1, 0, 8, 0.00,60.00,Sunday
59,76703184.96410749
95,5176795.840717642
512,41385398.908734139
1733,76703184.96410749
2,1, 6, 1, 0, 9, 0.00,60.00,Sunday
59,76645962.67082957
95,5173573.547439724
512,41385398.908734139
1733,76645962.67082957
2,1, 6, 1, 0,10, 0.00,60.00,Sunday
59,76639962.67082957
95,5173573.547439724
512,41385398.908734139
1733,76639962.67082957
2,1, 6, 1, 0,11, 0.00,60.00,Sunday
59,76549962.67082957
95,5173573.547439724
512,41385398.908734139
1733,76549962.67082957
2,1, 6, 1, 0,12, 0.00,60.00,Sunday
59,76417962.67082957
95,5173573.547439724
512,41385398.908734139
1733,76417962.67082957
2,1, 6, 1, 0,13, 0.00,60.00,Sunday
59,76483962.67082957
95,5173573.547439724
512,41385398.908734139
1733,76483962.67082957
2,1, 6, 1, 0,14, 0.00,60.00,Sunday
59,76759962.67082957
95,5173573.547439724
512,41385398.908734139
1733,76759962.67082957
2,1, 6, 1, 0,15, 0.00,60.00,Sunday
59,76681962.67082957
95,5173573.547439724
512,41385398.908734139
1733,76681962.67082957
2,1, 6, 1, 0,16, 0.00,60.00,Sunday
59,76285962.67082957
95,5173573.547439724
512,41385398.908734139
1733,76285962.67082957
2,1, 6, 1, 0,17, 0.00,60.00,Sunday
59,76291962.67082957
95,5173573.547439724
512,41385398.908734139
1733,76291962.67082957
2,1, 6, 1, 0,18, 0.00,60.00,Sunday
59,76305476.84232332
95,5187087.718933523
512,41385398.908734139
1733,76305476.84232332
2,1, 6, 1, 0,19, 0.00,60.00,Sunday
59,68892704.67099275
95,6443812.954978992
512,33399901.50135806
1733,68892704.67099275
2,1, 6, 1, 0,20, 0.00,60.00,Sunday
59,77680962.68374583
95,7572506.967732079
512,33399901.50135806
1733,77680962.68374583
2,1, 6, 1, 0,21, 0.00,60.00,Sunday
59,81279285.25372748
95,7625873.53771374
512,33399901.50135806
1733,81279285.25372748
2,1, 6, 1, 0,22, 0.00,60.00,Sunday
59,81393285.25372748
95,7625873.53771374
512,33399901.50135806
1733,81393285.25372748
2,1, 6, 1, 0,23, 0.00,60.00,Sunday
59,81501285.25372748
95,7625873.53771374
512,33399901.50135806
1733,81501285.25372748
2,1, 6, 1, 0,24, 0.00,60.00,Sunday
59,81453285.25372748
95,7625873.53771374
512,33399901.50135806
1733,81453285.25372748
2,2, 6, 2, 0, 1, 0.00,60.00,Monday
59,90695205.75418005
95,7625873.53771374
512,44533202.00181081
1733,90695205.75418005
2,2, 6, 2, 0, 2, 0.00,60.00,Monday
59,90611205.75418005
95,7625873.53771374
512,44533202.00181081
1733,90611205.75418005
2,2, 6, 2, 0, 3, 0.00,60.00,Monday
59,90479205.75418005
95,7625873.53771374
512,44533202.00181081
1733,90479205.75418005
2,2, 6, 2, 0, 4, 0.00,60.00,Monday
59,89813205.75418005
95,7625873.53771374
512,44533202.00181081
1733,89813205.75418005
2,2, 6, 2, 0, 5, 0.00,60.00,Monday
59,89231205.75418005
95,7625873.53771374
512,44533202.00181081
1733,89231205.75418005
2,2, 6, 2, 0, 6, 0.00,60.00,Monday
59,91172539.33069745
95,14699334.114230935
512,44533202.00181081
1733,91172539.33069745
2,2, 6, 2, 0, 7, 0.00,60.00,Monday
59,96050116.34480936
95,10566594.251841579
512,55180531.87831209
1733,96050116.34480936
2,2, 6, 2, 0, 8, 0.00,60.00,Monday
59,159622858.2607472
95,31055941.604388983
512,95796493.41677362
1733,159622858.2607472
2,2, 6, 2, 0, 9, 0.00,60.00,Monday
59,334006568.2399236
95,93124323.85391505
512,204227663.7591696
1733,334006568.2399236
2,2, 6, 2, 0,10, 0.00,60.00,Monday
59,303824702.50189158
95,93124323.85391505
512,174055806.61631225
1733,303824702.5018916
2,2, 6, 2, 0,11, 0.00,60.00,Monday
59,296290160.9917118
95,93124323.85391505
512,167093070.3525762
1733,296290160.9917118
2,2, 6, 2, 0,12, 0.00,60.00,Monday
59,303741113.1741699
95,93124323.85391505
512,174055806.61631225
1733,303741113.1741699
2,2, 6, 2, 0,13, 0.00,60.00,Monday
59,308197453.9851153
95,93124323.85391505
512,177667514.30607493
1733,308197453.9851153
2,2, 6, 2, 0,14, 0.00,60.00,Monday
59,310815885.3638022
95,93124323.85391505
512,179858086.83609239
1733,310815885.3638022
2,2, 6, 2, 0,15, 0.00,60.00,Monday
59,298610204.9790521
95,93124323.85391505
512,167093070.3525762
1733,298610204.9790521
2,2, 6, 2, 0,16, 0.00,60.00,Monday
59,299027559.6109879
95,93124323.85391505
512,167093070.3525762
1733,299027559.61098787
2,2, 6, 2, 0,17, 0.00,60.00,Monday
59,310095103.6109064
95,93124323.85391505
512,177537174.74818046
1733,310095103.6109065
2,2, 6, 2, 0,18, 0.00,60.00,Monday
59,230594117.46396173
95,51901102.52357059
512,140923939.57316477
1733,230594117.46396167
2,2, 6, 2, 0,19, 0.00,60.00,Monday
59,135572597.15923319
95,32385893.482226559
512,69106004.40578471
1733,135572597.1592332
2,2, 6, 2, 0,20, 0.00,60.00,Monday
59,138418603.69040085
95,38843637.25561744
512,59822356.054136309
1733,138418603.69040085
2,2, 6, 2, 0,21, 0.00,60.00,Monday
59,128037866.33051567
95,26303943.895732464
512,59822356.054136309
1733,128037866.3305161
2,2, 6, 2, 0,22, 0.00,60.00,Monday
59,122349985.9887001
95,26303943.895732464
512,55180531.87831209
1733,122349985.9887001
2,2, 6, 2, 0,23, 0.00,60.00,Monday
59,109792014.04083409
95,13151971.947866232
512,55180531.87831209
1733,109792014.04083409
2,2, 6, 2, 0,24, 0.00,60.00,Monday
59,103216028.06690096
95,6575985.973933116
512,55180531.87831209
1733,103216028.06690096
End of Data
 Number of Records Written=         384
