Program Version,EnergyPlus, Version 9.3.0-baff08990c, YMD=2021.06.28 21:25
1,5,Environment Title[],Latitude[deg],Longitude[deg],Time Zone[],Elevation[m]
2,8,Day of Simulation[],Month[],Day of Month[],DST Indicator[1=yes 0=no],Hour[],StartMinute[],EndMinute[],DayType
3,5,Cumulative Day of Simulation[],Month[],Day of Month[],DST Indicator[1=yes 0=no],DayType  ! When Daily Report Variables Requested
4,2,Cumulative Days of Simulation[],Month[]  ! When Monthly Report Variables Requested
5,1,Cumulative Days of Simulation[] ! When Run Period Report Variables Requested
6,1,Calendar Year of Simulation[] ! When Annual Report Variables Requested
7,1,Environment,Site Outdoor Air Drybulb Temperature [C] !Hourly
761,1,PERIMETER_TOP_ZN_1_WALL_SOUTH,CondFD Phase Change State 1 [] !Hourly
762,1,PERIMETER_TOP_ZN_1_WALL_SOUTH,CondFD Phase Change Node Temperature 1 [C] !Hourly
763,1,PERIMETER_TOP_ZN_1_WALL_SOUTH,CondFD Phase Change State 2 [] !Hourly
764,1,PERIMETER_TOP_ZN_1_WALL_SOUTH,CondFD Phase Change Node Temperature 2 [C] !Hourly
765,1,PERIMETER_TOP_ZN_1_WALL_SOUTH,CondFD Phase Change State 3 [] !Hourly
766,1,PERIMETER_TOP_ZN_1_WALL_SOUTH,CondFD Phase Change Node Temperature 3 [C] !Hourly
767,1,PERIMETER_TOP_ZN_1_WALL_SOUTH,CondFD Phase Change State 4 [] !Hourly
768,1,PERIMETER_TOP_ZN_1_WALL_SOUTH,CondFD Phase Change Node Temperature 4 [C] !Hourly
769,1,PERIMETER_TOP_ZN_1_WALL_SOUTH,CondFD Phase Change State 5 [] !Hourly
770,1,PERIMETER_TOP_ZN_1_WALL_SOUTH,CondFD Phase Change Node Temperature 5 [C] !Hourly
771,1,PERIMETER_TOP_ZN_1_WALL_SOUTH,CondFD Phase Change State 6 [] !Hourly
772,1,PERIMETER_TOP_ZN_1_WALL_SOUTH,CondFD Phase Change Node Temperature 6 [C] !Hourly
773,1,PERIMETER_TOP_ZN_1_WALL_SOUTH,CondFD Phase Change State 7 [] !Hourly
774,1,PERIMETER_TOP_ZN_1_WALL_SOUTH,CondFD Phase Change Node Temperature 7 [C] !Hourly
775,1,PERIMETER_TOP_ZN_1_WALL_SOUTH,CondFD Phase Change State 8 [] !Hourly
776,1,PERIMETER_TOP_ZN_1_WALL_SOUTH,CondFD Phase Change Node Temperature 8 [C] !Hourly
785,1,PERIMETER_TOP_ZN_1,Zone Mean Air Temperature [C] !Hourly
2064,1,PERI1_TOP_LOTEMP,Zone Radiant HVAC Heating Rate [W] !Hourly
2067,1,PERI1_TOP_LOTEMP,Zone Radiant HVAC Cooling Rate [W] !Hourly
2070,1,PERI1_TOP_LOTEMP,Zone Radiant HVAC Inlet Temperature [C] !Hourly
2071,1,PERI1_TOP_LOTEMP,Zone Radiant HVAC Pump Inlet Temperature [C] !Hourly
End of Data Dictionary
1,ATLANTA-HARTSFIELD.JACKSON.INTL.AP_GA_USA ANN HTG 99.6% CONDNS DB,  41.98, -87.92,  -6.00, 201.00
2,1, 1,21, 0, 1, 0.00,60.00,WinterDesignDay
7,-6.300000000000007
762,-7.8104347755236
764,-7.6249351580295789
766,-7.439571378932672
768,-7.393211778239249
770,-7.3469246154577549
772,12.585132721699824
774,12.6309118427497
776,12.67575021647461
785,13.396028234036788
761,0.0
763,0.0
765,2.0
767,2.0
769,2.0
771,2.0
773,2.0
775,2.0
2064,0.0
2067,0.0
2070,13.92286956999999
2071,13.92286956999999
2,1, 1,21, 0, 2, 0.00,60.00,WinterDesignDay
7,-6.300000000000007
762,-7.811672764712089
764,-7.626340998585231
766,-7.441145460615002
768,-7.3948279392721
770,-7.348582662769659
772,12.56551317556523
774,12.611308986061085
776,12.656280510560306
785,13.38492513457687
761,0.0
763,0.0
765,2.0
767,2.0
769,2.0
771,2.0
773,2.0
775,2.0
2064,0.0
2067,0.0
2070,13.565890119999983
2071,13.565890119999983
2,1, 1,21, 0, 3, 0.00,60.00,WinterDesignDay
7,-6.300000000000007
762,-7.812898783951927
764,-7.627731729240584
766,-7.4426978815294009
768,-7.396419509682115
770,-7.350211517615092
772,12.54825901216108
774,12.594066952973249
776,12.639147210651336
785,13.37484500686118
761,0.0
763,0.0
765,2.0
767,2.0
769,2.0
771,2.0
773,2.0
775,2.0
2064,0.0
2067,0.0
2070,10.354093980000008
2071,10.354093980000008
2,1, 1,21, 0, 4, 0.00,60.00,WinterDesignDay
7,-6.300000000000007
762,-7.8140874218717599
764,-7.629079052266466
766,-7.444198698159304
768,-7.397956607671641
770,-7.351781977517537
772,12.532975065228
774,12.578791788066213
776,12.623961921016676
785,13.365675792066473
761,0.0
763,0.0
765,2.0
767,2.0
769,2.0
771,2.0
773,2.0
775,2.0
2064,0.0
2067,0.0
2070,12.566846869999987
2071,12.566846869999987
2,1, 1,21, 0, 5, 0.00,60.00,WinterDesignDay
7,-6.300000000000007
762,-7.815222869599841
764,-7.630365404501345
766,-7.445629458928485
768,-7.399420889536008
770,-7.353276237119361
772,12.51935539411709
774,12.565178293773313
776,12.610423116780528
785,13.35729973469946
761,0.0
763,0.0
765,2.0
767,2.0
769,2.0
771,2.0
773,2.0
775,2.0
2064,0.0
2067,0.0
2070,10.179507520000007
2071,10.179507520000007
2,1, 1,21, 0, 6, 0.00,60.00,WinterDesignDay
7,-6.300000000000007
762,-7.816296052956612
764,-7.6315807574425
766,-7.446979798267139
768,-7.400802141494447
770,-7.3546845424599989
772,12.507145923917092
774,12.552972876372472
776,12.598279895782968
785,13.349604543268807
761,0.0
763,0.0
765,2.0
767,2.0
769,2.0
771,2.0
773,2.0
775,2.0
2064,0.0
2067,0.0
2070,11.914148129999984
2071,11.914148129999984
2,1, 1,21, 0, 7, 0.00,60.00,WinterDesignDay
7,-6.300000000000007
762,-7.817260809913403
764,-7.632664957443523
766,-7.448155865119356
768,-7.4019877087821
770,-7.355859791234442
772,12.51552349076551
774,12.562413050916114
776,12.61092421439474
785,13.741070329709354
761,0.0
763,0.0
765,2.0
767,2.0
769,2.0
771,2.0
773,2.0
775,2.0
2064,0.0
2067,0.0
2070,10.427184239999985
2071,10.427184239999985
2,1, 1,21, 0, 8, 0.00,60.00,WinterDesignDay
7,-6.300000000000007
762,-7.817738148186308
764,-7.633174501881161
766,-7.448623327468344
768,-7.402414431714587
770,-7.3562053882483229
772,12.55906918452336
774,12.606266497826745
776,12.655436580091197
785,13.83009466222095
761,0.0
763,0.0
765,2.0
767,2.0
769,2.0
771,2.0
773,2.0
775,2.0
2064,0.0
2067,0.0
2070,14.035722800000004
2071,14.035722800000004
2,1, 1,21, 0, 9, 0.00,60.00,WinterDesignDay
7,-6.300000000000007
762,-7.817581643129171
764,-7.632969977401689
766,-7.448310791555891
768,-7.402051953876254
770,-7.355763156248001
772,12.60021791130581
774,12.647379157414076
776,12.696249549741959
785,13.85381141264008
761,0.0
763,0.0
765,2.0
767,2.0
769,2.0
771,2.0
773,2.0
775,2.0
2064,0.0
2067,0.0
2070,14.046290920000015
2071,14.046290920000015
2,1, 1,21, 0,10, 0.00,60.00,WinterDesignDay
7,-6.300000000000007
762,-7.816968777657283
764,-7.632256260997763
766,-7.447456465884413
768,-7.401147432845258
770,-7.35478904220283
772,12.635264765584172
774,12.682371233619789
776,12.730919296339265
785,13.871242551494222
761,0.0
763,0.0
765,2.0
767,2.0
769,2.0
771,2.0
773,2.0
775,2.0
2064,0.0
2067,0.0
2070,13.303326829999982
2071,13.303326829999982
2,1, 1,21, 0,11, 0.00,60.00,WinterDesignDay
7,-6.300000000000007
762,-7.816064606924768
764,-7.63121876194755
766,-7.446261493250666
768,-7.399904035441316
770,-7.353485650880291
772,12.664830690895247
774,12.711891126419827
776,12.760170433989723
785,13.886007641012391
761,0.0
763,0.0
765,2.0
767,2.0
769,2.0
771,2.0
773,2.0
775,2.0
2064,0.0
2067,0.0
2070,10.777765049999982
2071,10.777765049999982
2,1, 1,21, 0,12, 0.00,60.00,WinterDesignDay
7,-6.300000000000007
762,-7.814991158025009
764,-7.62999403844735
766,-7.444872462477907
768,-7.398469109217899
770,-7.351998783421341
772,12.689934475290901
774,12.73696011447183
776,12.785025884022641
785,13.899070623038196
761,0.0
763,0.0
765,2.0
767,2.0
769,2.0
771,2.0
773,2.0
775,2.0
2064,0.0
2067,0.0
2070,12.92794513000001
2071,12.92794513000001
2,1, 1,21, 0,13, 0.00,60.00,WinterDesignDay
7,-6.300000000000007
762,-7.813833898124797
764,-7.628677589159441
766,-7.443391440800053
768,-7.396945034997242
770,-7.350429394131509
772,12.711462427681378
774,12.758462531608608
776,12.8063594235813
785,13.910792846347203
761,0.0
763,0.0
765,2.0
767,2.0
769,2.0
771,2.0
773,2.0
775,2.0
2064,0.0
2067,0.0
2070,14.33531091999999
2071,14.33531091999999
2,1, 1,21, 0,14, 0.00,60.00,WinterDesignDay
7,-6.300000000000007
762,-7.812651040897214
764,-7.627334390139646
766,-7.441887656494983
768,-7.3954011449365739
770,-7.348845665430369
772,12.73010937309369
774,12.7770909416459
776,12.824853339146483
785,13.921377177340144
761,0.0
763,0.0
765,2.0
767,2.0
769,2.0
771,2.0
773,2.0
775,2.0
2064,0.0
2067,0.0
2070,13.298617450000016
2071,13.298617450000016
2,1, 1,21, 0,15, 0.00,60.00,WinterDesignDay
7,-6.300000000000007
762,-7.811481196184355
764,-7.626007474273625
766,-7.440406763641096
768,-7.39388305924282
770,-7.347292282893193
772,12.746425698188978
774,12.793394250291933
776,12.841049270364949
785,13.93103515031056
761,0.0
763,0.0
765,2.0
767,2.0
769,2.0
771,2.0
773,2.0
775,2.0
2064,0.0
2067,0.0
2070,14.14997583000001
2071,14.14997583000001
2,1, 1,21, 0,16, 0.00,60.00,WinterDesignDay
7,-6.300000000000007
762,-7.8103490506994499
764,-7.624724315472326
766,-7.438977786458747
768,-7.3924197215318598
770,-7.3457975008680329
772,12.760809039140357
774,12.807767904816125
776,12.855334234390125
785,13.939748705505103
761,0.0
763,0.0
765,2.0
767,2.0
769,2.0
771,2.0
773,2.0
775,2.0
2064,0.0
2067,0.0
2070,12.27754674000001
2071,12.27754674000001
2,1, 1,21, 0,17, 0.00,60.00,WinterDesignDay
7,-6.300000000000007
762,-7.8092698064911849
764,-7.623501785850644
766,-7.4376184011719419
768,-7.391028678069584
770,-7.344378303769833
772,12.77357649469074
774,12.82052806036363
776,12.868019892776362
785,13.94762710755777
761,0.0
763,0.0
765,2.0
767,2.0
769,2.0
771,2.0
773,2.0
775,2.0
2064,0.0
2067,0.0
2070,11.690410769999982
2071,11.690410769999982
2,1, 1,21, 0,18, 0.00,60.00,WinterDesignDay
7,-6.300000000000007
762,-7.808252070620159
764,-7.622349396228211
766,-7.4363384411715469
768,-7.389719621301898
770,-7.343043953854647
772,12.784966042160612
774,12.831912563773141
776,12.879342670217359
785,13.954838845647722
761,0.0
763,0.0
765,2.0
767,2.0
769,2.0
771,2.0
773,2.0
775,2.0
2064,0.0
2067,0.0
2070,12.079521419999994
2071,12.079521419999994
2,1, 1,21, 0,19, 0.00,60.00,WinterDesignDay
7,-6.300000000000007
762,-7.807342234030466
764,-7.621327592666205
766,-7.435232187864214
768,-7.388605683748211
770,-7.3419420808547699
772,12.775784612844597
774,12.821676018792904
776,12.865929111346155
785,13.558806650026832
761,0.0
763,0.0
765,2.0
767,2.0
769,2.0
771,2.0
773,2.0
775,2.0
2064,0.0
2067,0.0
2070,14.297923269999988
2071,14.297923269999988
2,1, 1,21, 0,20, 0.00,60.00,WinterDesignDay
7,-6.300000000000007
762,-7.806914743945342
764,-7.620874158987653
766,-7.434825876234473
768,-7.388240845593062
770,-7.341658379216708
772,12.732338580564205
774,12.77793324684737
776,12.82155800034125
785,13.471920854154642
761,0.0
763,0.0
765,2.0
767,2.0
769,2.0
771,2.0
773,2.0
775,2.0
2064,0.0
2067,0.0
2070,10.35017739
2071,10.35017739
2,1, 1,21, 0,21, 0.00,60.00,WinterDesignDay
7,-6.300000000000007
762,-7.807110546775549
764,-7.621122919364481
766,-7.4351867819868329
768,-7.388652448458643
770,-7.3421501456693829
772,12.691030337849318
774,12.73665086358978
776,12.780545304349584
785,13.447732377391033
761,0.0
763,0.0
765,2.0
767,2.0
769,2.0
771,2.0
773,2.0
775,2.0
2064,0.0
2067,0.0
2070,12.230120469999984
2071,12.230120469999984
2,1, 1,21, 0,22, 0.00,60.00,WinterDesignDay
7,-6.300000000000007
762,-7.807758609573371
764,-7.621876489572542
766,-7.436085490489024
768,-7.389602457776922
770,-7.343170829556854
772,12.65547099936586
774,12.701139299653774
776,12.74533735744243
785,13.429992357138044
761,0.0
763,0.0
765,2.0
767,2.0
769,2.0
771,2.0
773,2.0
775,2.0
2064,0.0
2067,0.0
2070,14.056545499999997
2071,14.056545499999997
2,1, 1,21, 0,23, 0.00,60.00,WinterDesignDay
7,-6.300000000000007
762,-7.808698371107107
764,-7.622954421738384
766,-7.437325924850893
768,-7.390892659137747
770,-7.34452248310047
772,12.625200843191055
774,12.670910778308516
776,12.715367553179608
785,13.414942123577001
761,0.0
763,0.0
765,2.0
767,2.0
769,2.0
771,2.0
773,2.0
775,2.0
2064,0.0
2067,0.0
2070,12.157724600000013
2071,12.157724600000013
2,1, 1,21, 0,24, 0.00,60.00,WinterDesignDay
7,-6.300000000000007
762,-7.809809584280967
764,-7.624222093344575
766,-7.438763362765385
768,-7.392377470753366
770,-7.346060863202468
772,12.599311134393023
774,12.64505307418498
776,12.68971845119343
785,13.401576096282108
761,0.0
763,0.0
765,2.0
767,2.0
769,2.0
771,2.0
773,2.0
775,2.0
2064,0.0
2067,0.0
2070,10.996945129999983
2071,10.996945129999983
1,ATLANTA-HARTSFIELD.JACKSON.INTL.AP_GA_USA ANN CLG .4% CONDNS DB=>MWB,  41.98, -87.92,  -6.00, 201.00
2,1, 7,21, 0, 1, 0.00,60.00,SummerDesignDay
7,26.32025
762,27.338573385290716
764,27.85569981247187
766,28.257077051643284
768,28.32698928041177
770,28.331570766850299
772,18.230997503685296
774,18.411242505697499
776,18.58389718313247
785,22.78535567734789
761,0.0
763,0.0
765,-2.0
767,-2.0
769,-2.0
771,1.0
773,1.0
775,1.0
2064,0.0
2067,3380.8537907507095
2070,12.948300930137372
2071,12.893786545485268
2,1, 7,21, 0, 2, 0.00,60.00,SummerDesignDay
7,25.84683333333334
762,26.3164671796639
764,26.754531452401815
766,27.09431420868045
768,27.153126809394899
770,27.15610016506122
772,18.18116834651666
774,18.359794854143997
776,18.530692647959694
785,22.69341186118856
761,0.0
763,0.0
765,-2.0
767,-2.0
769,-2.0
771,1.0
773,1.0
775,1.0
2064,0.0
2067,3315.474014109814
2070,12.987954304953615
2071,12.933435624285421
2,1, 7,21, 0, 3, 0.00,60.00,SummerDesignDay
7,25.515125
762,25.45609433514999
764,25.823118961386336
766,26.10695847050466
768,26.15559253023794
770,26.156935946322468
772,18.133627498307228
774,18.311069141368308
776,18.480695375215857
785,22.617772977376374
761,0.0
763,0.0
765,-2.0
767,-2.0
769,-2.0
771,1.0
773,1.0
775,1.0
2064,0.0
2067,3261.8959956259539
2070,13.020450496195979
2071,12.965928810517849
2,1, 7,21, 0, 4, 0.00,60.00,SummerDesignDay
7,25.230124999999995
762,24.725383430221883
764,25.033104802908335
766,25.27011722573193
768,25.310227268731564
770,25.310213353284568
772,18.088979236067819
774,18.265340683424978
776,18.433888818735566
785,22.55065721938564
761,0.0
763,0.0
765,-2.0
767,-2.0
769,-2.0
771,1.0
773,1.0
775,1.0
2064,0.0
2067,3214.399311312323
2070,13.049258740005941
2071,12.994734484444369
2,1, 7,21, 0, 5, 0.00,60.00,SummerDesignDay
7,24.993416666666673
762,24.14413977616105
764,24.37953952161155
766,24.565096281194657
768,24.596005367642915
770,24.594237280684355
772,18.047374325344494
774,18.222771712506323
776,18.39045037169971
785,22.493872932895369
761,0.0
763,0.0
765,-2.0
767,-2.0
769,-2.0
771,1.0
773,1.0
775,1.0
2064,0.0
2067,3173.9325513355049
2070,13.073803479356697
2071,13.019277075163928
2,1, 7,21, 0, 6, 0.00,60.00,SummerDesignDay
7,24.996583333333335
762,24.324542448014595
764,24.256651076326127
766,24.21771266444648
768,24.20586116837254
770,24.190768736580094
772,18.007214778113235
774,18.181877470022927
776,18.34822363086987
785,22.464032079091099
761,0.0
763,0.0
765,-2.0
767,-2.0
769,-2.0
771,1.0
773,1.0
775,1.0
2064,0.0
2067,3152.634836493836
2070,13.086721552709467
2071,13.032195120372015
2,1, 7,21, 0, 7, 0.00,60.00,SummerDesignDay
7,25.42804166666666
762,25.36579693308709
764,24.934801138215208
766,24.601044595021987
768,24.53047883112695
770,24.495140651948487
772,17.950593016750756
774,18.13696799346809
776,18.312482374026769
785,22.836297623657026
761,0.0
763,0.0
765,-2.0
767,-2.0
769,-2.0
771,1.0
773,1.0
775,1.0
2064,0.0
2067,3409.5309572100479
2070,12.930908964204539
2071,12.876386351091793
2,1, 7,21, 0, 8, 0.00,60.00,SummerDesignDay
7,26.575958333333334
762,27.050132531397357
764,26.262593091277595
766,25.655644254487837
768,25.531001067232564
770,25.475869304873976
772,17.889142903128385
774,18.086269386614118
776,18.272270486329245
785,23.082088332120468
761,0.0
763,0.0
765,-2.0
767,-2.0
769,-2.0
771,1.0
773,1.0
775,1.0
2064,0.0
2067,3586.2311766014388
2070,12.82374382676053
2071,12.769230214929982
2,1, 7,21, 0, 9, 0.00,60.00,SummerDesignDay
7,28.287541666666664
762,30.93140778607993
764,29.23563374959824
766,27.928991275357175
768,27.666482594955438
770,27.56193142547382
772,17.832833036379048
774,18.04239679233367
776,18.241802198207738
785,23.476730530542885
761,0.0
763,0.0
765,-2.0
767,-2.0
769,-2.0
771,1.0
773,1.0
775,1.0
2064,0.0
2067,3861.6840740334384
2070,12.656702153731477
2071,12.60219110615426
2,1, 7,21, 0,10, 0.00,60.00,SummerDesignDay
7,29.995958333333328
762,36.32343295935443
764,33.897986033133069
766,31.969639219099375
768,31.578792122009923
770,31.423882659869834
772,17.78277804975609
774,18.00742807072376
776,18.225489899037397
785,23.9592856847939
761,0.0
763,0.0
765,-2.0
767,-2.0
769,-2.0
771,1.0666666666666667
773,1.0
775,1.0666666666666667
2064,0.0
2067,4206.353104298412
2070,12.447706192337238
2071,12.393195144760023
2,1, 7,21, 0,11, 0.00,60.00,SummerDesignDay
7,31.514374999999995
762,41.862577085368069
764,39.16489882162022
766,36.976844174221678
768,36.52794416705842
770,36.34420708720645
772,17.811812546500076
774,18.032435033657224
776,18.25754727854657
785,23.999958164461828
761,0.0
763,0.0
765,-2.0
767,-2.0
769,-2.0
771,2.0
773,1.9666666666666666
775,2.0
2064,0.0
2067,4237.88116563516
2070,12.428589678704686
2071,12.374078631127466
2,1, 7,21, 0,12, 0.00,60.00,SummerDesignDay
7,32.697916666666667
762,46.62785763057623
764,44.10078325322327
766,42.010064244953507
768,41.573731534928999
770,41.384767650712657
772,17.99803562460306
774,18.210580614475246
776,18.433989675247675
785,24.00001059374946
761,0.0
763,0.0
765,-2.0
767,-2.0
769,-2.0
771,2.0
773,2.0
775,2.0
2064,0.0
2067,4237.9182519124219
2070,12.428567187457486
2071,12.374056139880273
2,1, 7,21, 0,13, 0.00,60.00,SummerDesignDay
7,33.55133333333333
762,49.953084103041017
764,47.94580265393684
766,46.24319107222286
768,45.878183213834208
770,45.70517192460297
772,18.272177747968553
774,18.47630900756893
776,18.693340639562753
785,24.000008664221754
761,0.0
763,0.0
765,-2.0
767,-2.0
769,-2.0
771,2.0
773,2.0
775,2.0
2064,0.0
2067,4237.9177294794449
2070,12.428567504453053
2071,12.374056456875842
2,1, 7,21, 0,14, 0.00,60.00,SummerDesignDay
7,34.16645833333333
762,51.49332469884299
764,50.23254125293507
766,49.109266188494498
768,48.855045078798578
770,48.713651463322687
772,18.544822127698525
774,18.74181648812984
776,18.950274631628746
785,24.00001171671115
761,0.0
763,0.0
765,-2.0
767,-2.0
769,-2.0
771,2.0
773,2.0
775,2.0
2064,0.0
2067,4237.919441638474
2070,12.428566465569892
2071,12.374055417992678
2,1, 7,21, 0,15, 0.00,60.00,SummerDesignDay
7,34.40000000000004
762,51.06805347316111
764,50.68868248231393
766,50.26218335507656
768,50.143878037305807
770,50.045538936084188
772,18.750325684913908
774,18.9426610025731
776,19.142492814979009
785,23.999984821946876
761,0.0
763,0.0
765,-2.0
767,-2.0
769,-2.0
771,2.0
773,2.0
775,2.0
2064,0.0
2067,4237.900969927317
2070,12.428577673611521
2071,12.3740666260343
2,1, 7,21, 0,16, 0.00,60.00,SummerDesignDay
7,34.110250000000018
762,48.71191532379458
764,49.2459909039385
766,49.553262427553807
768,49.58036359784103
770,49.53157432739033
772,18.850772576103116
774,19.041836580640106
776,19.235078175776854
785,23.999940777122445
761,0.0
763,0.0
765,-2.0
767,-2.0
769,-2.0
771,1.8666666666666668
773,1.6
775,1.4666666666666666
2064,0.0
2067,4237.869983345242
2070,12.42859645747805
2071,12.374085409900835
2,1, 7,21, 0,17, 0.00,60.00,SummerDesignDay
7,33.44366666666667
762,45.06841146727657
764,46.258733570545469
766,47.13584299939218
768,47.28003476846676
770,47.274878689403688
772,18.845333456667598
774,19.03863663091856
776,19.228921078266074
785,23.999898122725008
761,0.0
763,0.0
765,-2.0
767,-2.0
769,-2.0
771,1.0
773,-2.0
775,-2.0
2064,0.0
2067,4237.839568915864
2070,12.42861490883734
2071,12.374103861260123
2,1, 7,21, 0,18, 0.00,60.00,SummerDesignDay
7,32.58708333333333
762,42.02615120128177
764,43.22821268850645
766,44.14424743675385
768,44.300596769465467
770,44.305215885671419
772,18.772788454571317
774,18.97032697365968
776,19.160894838807903
785,23.998427969599708
761,0.0
763,0.0
765,-2.0
767,-2.0
769,-2.0
771,1.0
773,0.5
775,-2.0
2064,0.0
2067,4237.040990325157
2070,12.429099106457932
2071,12.37458805888072
2,1, 7,21, 0,19, 0.00,60.00,SummerDesignDay
7,31.395624999999997
762,38.92646821813404
764,40.200078095373857
766,41.1705152827573
768,41.3397820124903
770,41.35389356962553
772,18.674068443911375
774,18.872304832732789
776,19.06241306888819
785,23.87180501324029
761,0.0
763,0.0
765,-2.0
767,-2.0
769,-2.0
771,1.0
773,1.0
775,-2.0
2064,0.0
2067,4149.555719345886
2070,12.48214425876075
2071,12.427633211183537
2,1, 7,21, 0,20, 0.00,60.00,SummerDesignDay
7,30.16379166666667
762,35.84670061606123
764,37.11957693260361
766,38.11142809558791
768,38.28877737382102
770,38.311258560023549
772,18.583524125969328
774,18.781140437434748
776,18.97054563792721
785,23.704805639491707
761,0.0
763,0.0
765,-2.0
767,-2.0
769,-2.0
771,1.0
773,1.0
775,0.45
2064,0.0
2067,4031.138475730264
2070,12.553946783858573
2071,12.49943573628136
2,1, 7,21, 0,21, 0.00,60.00,SummerDesignDay
7,29.215374999999999
762,33.48570490200283
764,34.53743832640598
766,35.36402288403507
768,35.51183785104108
770,35.529591731153129
772,18.493981050487784
774,18.691107910231869
776,18.879126113601609
785,23.566686975145445
761,0.0
763,0.0
765,-2.0
767,-2.0
769,-2.0
771,1.0
773,1.0
775,1.0
2064,0.0
2067,3933.0493561546315
2070,12.613425515545347
2071,12.558914467968134
2,1, 7,21, 0,22, 0.00,60.00,SummerDesignDay
7,28.360375
762,31.554764617937978
764,32.42066121011375
766,33.09832439261986
768,33.218601924892357
770,33.2312438466691
772,18.405876803538026
774,18.60278279791115
776,18.79003968573178
785,23.453679383350598
761,0.0
763,0.0
765,-2.0
767,-2.0
769,-2.0
771,1.0
773,1.0
775,1.0
2064,0.0
2067,3853.06237901102
2070,12.661929112927704
2071,12.60741806535048
2,1, 7,21, 0,23, 0.00,60.00,SummerDesignDay
7,27.60195833333334
762,29.920041455575494
764,30.641639322526208
766,31.205197478194905
768,31.304600056592009
770,31.313703211269023
772,18.338020172725714
774,18.52606537633278
776,18.70614423176339
785,23.10118549277538
761,0.0
763,0.0
765,-2.0
767,-2.0
769,-2.0
771,1.0
773,1.0
775,1.0
2064,0.0
2067,3607.445812865131
2070,12.810878334529143
2071,12.756367286951925
2,1, 7,21, 0,24, 0.00,60.00,SummerDesignDay
7,26.936958333333334
762,28.535746335705896
764,29.142053044176028
766,29.613755651852885
768,29.69637043390497
770,29.7027478666162
772,18.283594056630827
774,18.466856453573887
776,18.64253207786551
785,22.923728373934279
761,0.0
763,0.0
765,-2.0
767,-2.0
769,-2.0
771,1.0
773,1.0
775,1.0
2064,0.0
2067,3478.8379285672797
2070,12.888874424185796
2071,12.834363327425768
1,RUNPERIOD 1,  41.98, -87.92,  -6.00, 201.00
2,1, 6, 1, 0, 1, 0.00,60.00,Sunday
7,15.74
762,16.87861292469703
764,17.33747290227067
766,17.8365587762128
768,17.938939647969943
770,17.97559724895624
772,18.475759765042345
774,18.49526483237803
776,18.55140373166479
785,20.65868245896439
761,0.0
763,0.0
765,1.0333333333333335
767,1.0
769,1.0
771,2.0
773,2.0
775,2.0
2064,0.0
2067,0.0
2070,15.0
2071,15.0
2,1, 6, 1, 0, 2, 0.00,60.00,Sunday
7,18.15083333333332
762,17.652206327688753
764,17.712246311855738
766,17.783690368306048
768,17.8004609336311
770,17.809104129745813
772,19.15565956050896
774,19.173373066966954
776,19.220280658752917
785,21.05780926105414
761,0.0
763,0.0
765,1.2166666666666666
767,1.0
769,1.0
771,2.0
773,2.0
775,2.0
2064,0.0
2067,0.0
2070,15.0
2071,15.0
2,1, 6, 1, 0, 3, 0.00,60.00,Sunday
7,18.20000000000002
762,17.681198195500323
764,17.725165833852043
766,17.76797502607445
768,17.777015792665414
770,17.782882726418984
772,19.63186858626539
774,19.647673878285326
776,19.68659161031662
785,21.215058242710346
761,0.0
763,0.0
765,1.0
767,1.0
769,1.0
771,2.0
773,2.0
775,2.0
2064,0.0
2067,0.0
2070,15.0
2071,15.0
2,1, 6, 1, 0, 4, 0.00,60.00,Sunday
7,18.250833333333327
762,17.684764783803936
764,17.71951628743884
766,17.754857950009016
768,17.76285298218039
770,17.768913740586418
772,19.95010114100467
774,19.964584501481946
776,19.998045172547554
785,21.30909225930802
761,0.0
763,0.0
765,1.0
767,1.0
769,1.0
771,1.05
773,0.9
775,0.5
2064,0.0
2067,0.0
2070,15.0
2071,15.0
2,1, 6, 1, 0, 5, 0.00,60.00,Sunday
7,18.04583333333333
762,17.73724929838745
764,17.74278379313214
766,17.756922386800335
768,17.761408631212363
770,17.766654568109673
772,20.169012233274214
774,20.18267150889877
776,20.212668428710466
785,21.382223655657677
761,0.0
763,0.0
765,1.55
767,1.4666666666666666
769,1.4333333333333334
771,-1.0
773,-1.0
775,-1.0
2064,0.0
2067,0.0
2070,15.0
2071,15.0
2,1, 6, 1, 0, 6, 0.00,60.00,Sunday
7,16.935833333333336
762,17.93393862897466
764,17.888053211347775
766,17.856084283726504
768,17.85277949638173
770,17.855515787015894
772,20.330589469555695
774,20.34363092121096
776,20.371397253785096
785,21.397039563574059
761,0.0
763,0.0
765,2.0
767,2.0
769,2.0
771,-1.0
773,-1.0
775,-1.0
2064,0.0
2067,0.0
2070,15.0
2071,15.0
2,1, 6, 1, 0, 7, 0.00,60.00,Sunday
7,15.845833333333332
762,18.33429469709131
764,18.164609941428606
766,18.051790295870434
768,18.035943820548913
770,18.03459271228172
772,20.455851490782576
774,20.46839630707842
776,20.495019863381196
785,21.40910903669197
761,0.0
763,0.0
765,2.0
767,2.0
769,2.0
771,-1.0
773,-1.0
775,-1.0
2064,0.0
2067,0.0
2070,15.0
2071,15.0
2,1, 6, 1, 0, 8, 0.00,60.00,Sunday
7,16.159166666666669
762,19.934181796433039
764,19.299317352665854
766,18.817652357287377
768,18.73989326718617
770,18.715245308452344
772,19.206845568159456
774,19.441480229989755
776,19.56204735270297
785,21.59213851340675
761,0.0
763,0.0
765,2.0
767,2.0
769,2.0
771,-0.7
773,-1.15
775,-1.45
2064,0.0
2067,4967.181470152956
2070,11.986462494976774
2071,11.931861153446233
2,1, 6, 1, 0, 9, 0.00,60.00,Sunday
7,17.81833333333333
762,22.863653055981577
764,21.434779944504624
766,20.262598541414357
768,20.076941627119305
770,20.015944967866369
772,17.95107771003666
774,18.250513257515409
776,18.41493378051287
785,21.81195894535312
761,0.0
763,0.0
765,0.0
767,0.3
769,0.45
771,1.0
773,1.0
775,1.0
2064,0.0
2067,6308.717617955543
2070,11.173477020400793
2071,11.118888392688426
2,1, 6, 1, 0,10, 0.00,60.00,Sunday
7,19.459166666666666
762,26.707645557463658
764,24.23323654674456
766,22.070862309853554
768,21.594460967727284
770,21.430411673494054
772,16.911945221437376
774,17.319372229351055
776,17.573810647315019
785,22.38993813871925
761,0.0
763,0.0
765,-1.4666666666666666
767,-1.2666666666666667
769,-1.2166666666666666
771,1.5
773,1.25
775,1.1333333333333334
2064,0.0
2067,7665.583175663488
2070,10.351543634969194
2071,10.296967855689332
2,1, 6, 1, 0,11, 0.00,60.00,Sunday
7,20.559166666666667
762,31.221581283447148
764,28.575297738563419
766,26.417605244542654
768,25.979426799590056
770,25.812491579931689
772,14.673889328607756
774,15.098602454121187
776,15.406787848567604
785,22.611114756929849
761,0.0
763,0.0
765,-2.0
767,-2.0
769,-2.0
771,2.0
773,2.0
775,2.0
2064,0.0
2067,8236.68971012989
2070,10.005708193296894
2071,9.951141579467454
2,1, 6, 1, 0,12, 0.00,60.00,Sunday
7,21.65916666666667
762,35.54865392820932
764,33.23320803393525
766,31.307433122403319
768,30.90787082128584
770,30.740842500678036
772,12.627580057174696
774,13.057790275617059
776,13.416047548854465
785,22.47937292026154
761,0.0
763,0.0
765,-2.0
767,-2.0
769,-2.0
771,2.0
773,2.0
775,2.0
2064,0.0
2067,8246.117130845483
2070,10.0
2071,9.945443317212228
2,1, 6, 1, 0,13, 0.00,60.00,Sunday
7,22.759166666666667
762,37.51196387689711
764,36.07502840681623
766,34.83167129679091
768,34.56317784680132
770,34.43539278136653
772,14.2252984517369
774,14.269301836704678
776,14.476850441171117
785,22.51441994852833
761,0.0
763,0.0
765,-2.0
767,-2.0
769,-2.0
771,2.0
773,2.0
775,2.0
2064,0.0
2067,0.0
2070,15.0
2071,15.0
2,1, 6, 1, 0,14, 0.00,60.00,Sunday
7,23.299999999999974
762,39.14553752577027
764,38.01310520985886
766,37.04837343086168
768,36.83806663308057
770,36.731765648757299
772,17.380532940782858
774,17.3956542088772
776,17.530040024797346
785,23.306452586158739
761,0.0
763,0.0
765,-2.0
767,-2.0
769,-2.0
771,2.0
773,2.0
775,2.0
2064,0.0
2067,0.0
2070,15.0
2071,15.0
2,1, 6, 1, 0,15, 0.00,60.00,Sunday
7,23.604999999999995
762,39.30034221335883
764,38.87128835027001
766,38.42629748078869
768,38.31621065166904
770,38.243847325452367
772,19.490539136630024
774,19.490458438976796
776,19.576499192976994
785,23.712015763472779
761,0.0
763,0.0
765,-2.0
767,-2.0
769,-2.0
771,1.6
773,1.6
775,1.4
2064,0.0
2067,0.0
2070,15.0
2071,15.0
2,1, 6, 1, 0,16, 0.00,60.00,Sunday
7,24.459166666666666
762,37.21151234640926
764,37.71272538426727
766,38.02157292725119
768,38.061703248146319
770,38.04159590844067
772,20.455144025115027
774,20.44791105033255
776,20.506870990587676
785,23.599679940030236
761,0.0
763,0.0
765,-2.0
767,-2.0
769,-2.0
771,-1.0
773,-1.0
775,-1.0
2064,0.0
2067,0.0
2070,15.0
2071,15.0
2,1, 6, 1, 0,17, 0.00,60.00,Sunday
7,24.44083333333333
762,34.29378212584452
764,35.3004852185744
766,36.058607135915519
768,36.19055909139881
770,36.202142019279339
772,18.868846466758158
774,19.219450123863738
776,19.408226483788967
785,23.182655659140037
761,0.0
763,0.0
765,-2.0
767,-2.0
769,-2.0
771,-0.15
773,-0.55
775,-0.9
2064,0.0
2067,8246.117130845483
2070,10.0
2071,9.945468745562322
2,1, 6, 1, 0,18, 0.00,60.00,Sunday
7,23.34083333333334
762,31.742786042092097
764,32.79345806352462
766,33.606668186119659
768,33.75168195131449
770,33.769802783961178
772,17.51695441705959
774,17.91760334651964
776,18.146171415668488
785,22.514180388368069
761,0.0
763,0.0
765,-2.0
767,-2.0
769,-2.0
771,1.0
773,1.0
775,1.0
2064,0.0
2067,8246.117130845483
2070,10.0
2071,9.945458825665213
2,1, 6, 1, 0,19, 0.00,60.00,Sunday
7,21.68166666666667
762,29.015302408096458
764,30.196539647062648
766,31.092589957501397
768,31.253456390377257
770,31.27832740855052
772,15.932049329943537
774,16.34295674649113
776,16.60964804464954
785,21.84157389029063
761,0.0
763,0.0
765,-2.0
767,-2.0
769,-2.0
771,2.0
773,1.75
775,1.6333333333333334
2064,0.0
2067,8246.117130845483
2070,10.0
2071,9.945444014857163
2,1, 6, 1, 0,20, 0.00,60.00,Sunday
7,18.871666666666667
762,25.458627881682525
764,26.923440072648849
766,28.060715133737874
768,28.270347388070364
770,28.312526464224086
772,13.494731375586332
774,13.864855672185082
776,14.149642369402264
785,20.889539742426697
761,0.0
763,0.0
765,-2.0
767,-2.0
769,-2.0
771,2.0
773,2.0
775,2.0
2064,0.0
2067,7219.090702086683
2070,10.622014738661513
2071,10.567435054771757
2,1, 6, 1, 0,21, 0.00,60.00,Sunday
7,15.5225
762,22.203008257064029