Program Version,EnergyPlus, Version 9.3.0-622089b575, YMD=2021.12.16 02:03
1,5,Environment Title[],Latitude[deg],Longitude[deg],Time Zone[],Elevation[m]
2,8,Day of Simulation[],Month[],Day of Month[],DST Indicator[1=yes 0=no],Hour[],StartMinute[],EndMinute[],DayType
3,5,Cumulative Day of Simulation[],Month[],Day of Month[],DST Indicator[1=yes 0=no],DayType  ! When Daily Report Variables Requested
4,2,Cumulative Days of Simulation[],Month[]  ! When Monthly Report Variables Requested
5,1,Cumulative Days of Simulation[] ! When Run Period Report Variables Requested
6,1,Calendar Year of Simulation[] ! When Annual Report Variables Requested
702,1,CORE_TOP,Zone Mean Air Temperature [C] !Hourly
703,1,PERIMETER_TOP_ZN_3,Zone Mean Air Temperature [C] !Hourly
704,1,PERIMETER_TOP_ZN_2,Zone Mean Air Temperature [C] !Hourly
705,1,PERIMETER_TOP_ZN_1,Zone Mean Air Temperature [C] !Hourly
706,1,PERIMETER_TOP_ZN_4,Zone Mean Air Temperature [C] !Hourly
1681,1,CORE_TOP_LOTEMP,Zone Radiant HVAC Pump Electric Power [W] !Hourly
1723,1,PERI1_TOP_LOTEMP,Zone Radiant HVAC Pump Electric Power [W] !Hourly
1729,1,PERI2_TOP_LOTEMP,Zone Radiant HVAC Pump Electric Power [W] !Hourly
1735,1,PERI3_TOP_LOTEMP,Zone Radiant HVAC Pump Electric Power [W] !Hourly
1741,1,PERI4_TOP_LOTEMP,Zone Radiant HVAC Pump Electric Power [W] !Hourly
1931,1,COOLSYS1 CHILLER1,Chiller Electric Power [W] !Hourly
2034,1,CHILLED WATER LOOP CHW SUPPLY PUMP2,Pump Electric Power [W] !Hourly
End of Data Dictionary
1,RUNPERIOD 1,  40.78, -73.97,  -5.00,  40.00
2,1, 6,15, 0, 1, 0.00,60.00,Monday
702,20.980371856260555
703,20.779210346981448
704,20.76336071470356
705,20.75887614328995
706,20.792680500119969
1681,63.631150000000008
1723,0.0
1729,0.0
1735,0.0
1741,0.0
1931,1531.1183219128939
2034,656.45078
2,1, 6,15, 0, 2, 0.00,60.00,Monday
702,20.996015567783485
703,20.724898318162717
704,20.688780660883706
705,20.703621328152769
706,20.728578996943754
1681,89.08361
1723,0.0
1729,0.0
1735,0.0
1741,0.0
1931,2290.8636310119529
2034,919.031092
2,1, 6,15, 0, 3, 0.00,60.00,Monday
702,20.991980927231429
703,20.70877529593607
704,20.65388375970894
705,20.683139469409978
706,20.68869194279748
1681,76.35738
1723,0.0
1729,0.0
1735,0.0
1741,0.0
1931,2087.255586918121
2034,787.740936
2,1, 6,15, 0, 4, 0.00,60.00,Monday
702,20.988371372510593
703,20.676681119841544
704,20.60986427651214
705,20.6525960562514
706,20.63633719666013
1681,63.631150000000008
1723,0.0
1729,0.0
1735,0.0
1741,0.0
1931,1704.6579269767227
2034,656.45078
2,1, 6,15, 0, 5, 0.00,60.00,Monday
702,20.990057849083688
703,20.63875642598264
704,20.583935241285095
705,20.602487629778076
706,20.57221240152294
1681,38.17869
1723,0.0
1729,0.0
1735,0.0
1741,0.0
1931,969.0318403509812
2034,393.87046799999998
2,1, 6,15, 0, 6, 0.00,60.00,Monday
702,20.996585198800316
703,20.789703794814768
704,21.0554376195235
705,20.683418939113137
706,20.641340826897016
1681,76.35738
1723,0.0
1729,37.147
1735,0.0
1741,0.0
1931,3758.9907951531815
2034,1838.062184
2,1, 6,15, 0, 7, 0.00,60.00,Monday
702,20.273467785171709
703,20.440202932761808
704,21.24416428102737
705,20.37242066599675
706,20.1718597577746
1681,4.242076666666667
1723,0.0
1729,67.53999999999999
1735,0.0
1741,0.0
1931,5225.805051340642
2034,2625.803119999999
2,1, 6,15, 0, 8, 0.00,60.00,Monday
702,20.240693994248596
703,20.630511208182936
704,22.381092872598509
705,20.54634619189705
706,20.265511215933438
1681,0.0
1723,0.0
1729,67.53999999999999
1735,0.0
1741,0.0
1931,6187.3717353792449
2034,2625.803119999999
2,1, 6,15, 0, 9, 0.00,60.00,Monday
702,21.244663710964728
703,21.467585922450789
704,23.67737345767581
705,21.491620905718106
706,21.07860496557598
1681,178.16722000000005
1723,70.18756250000003
1729,67.53999999999999
1735,67.25463249999999
1741,52.0
1931,13406.709347894319
2034,2625.803119999999
2,1, 6,15, 0,10, 0.00,60.00,Monday
702,21.5990724049342
703,21.808119716404517
704,23.671769976694614
705,21.854364195449074
706,21.325938241395727
1681,254.52460000000003
1723,76.56825000000002
1729,67.53999999999999
1735,70.79434999999998
1741,80.0
1931,15116.882018935145
2034,2625.803119999999
2,1, 6,15, 0,11, 0.00,60.00,Monday
702,21.68386712329682
703,21.980000517122585
704,22.833114310404505
705,21.991803607765914
706,21.49288197094104
1681,254.52460000000003
1723,76.56825000000002
1729,67.53999999999999
1735,70.79434999999998
1741,80.0
1931,15077.591968531855
2034,2625.803119999999
2,1, 6,15, 0,12, 0.00,60.00,Monday
702,21.72738684779669
703,22.084409842761028
704,22.52791145711016
705,22.16951822689938
706,21.606558039215505
1681,254.52460000000003
1723,76.56825000000002
1729,67.53999999999999
1735,70.79434999999998
1741,80.0
1931,15385.676735771816
2034,2625.803119999999
2,1, 6,15, 0,13, 0.00,60.00,Monday
702,21.473855958304033
703,21.92330515772551
704,22.13183176588872
705,22.085432300733879
706,21.48257148871833
1681,254.52460000000003
1723,76.56825000000002
1729,67.53999999999999
1735,70.79434999999998
1741,80.0
1931,15222.748980244676
2034,2625.803119999999
2,1, 6,15, 0,14, 0.00,60.00,Monday
702,21.660184165399508
703,22.154515472737076
704,22.195615124326787
705,22.393973512231889
706,21.823474490002878
1681,254.52460000000003
1723,76.56825000000002
1729,67.53999999999999
1735,70.79434999999998
1741,80.0
1931,18556.426852325752
2034,2625.803119999999
2,1, 6,15, 0,15, 0.00,60.00,Monday
702,21.750626673792657
703,22.273435587090668
704,22.203240480113796
705,22.59323730989735
706,23.103835584108489
1681,254.52460000000003
1723,76.56825000000002
1729,67.53999999999999
1735,70.79434999999998
1741,80.0
1931,20177.956528310417
2034,2625.803119999999
2,1, 6,15, 0,16, 0.00,60.00,Monday
702,21.78886522172241
703,22.27897785390078
704,22.11391609615666
705,22.609555258890805
706,23.97520660498436
1681,254.52460000000003
1723,76.56825000000002
1729,67.53999999999999
1735,70.79434999999998
1741,80.0
1931,19975.92875249994
2034,2625.803119999999
2,1, 6,15, 0,17, 0.00,60.00,Monday
702,21.78094998646963
703,22.230110602001678
704,21.950400657766378
705,22.423440295697028
706,23.99792015686839
1681,254.52460000000003
1723,76.56825000000002
1729,67.53999999999999
1735,70.79434999999998
1741,80.0
1931,19513.792168907275
2034,2625.803119999999
2,1, 6,15, 0,18, 0.00,60.00,Monday
702,21.12194201384754
703,21.57426942064221
704,21.30142793571941
705,21.708491948290779
706,23.98115632055814
1681,178.16722000000005
1723,76.56825000000002
1729,67.53999999999999
1735,70.79434999999998
1741,80.0
1931,15255.451414786536
2034,2625.803119999999
2,1, 6,15, 0,19, 0.00,60.00,Monday
702,20.799024098941783
703,21.154366819404325
704,20.867799898264275
705,21.107877487395827
706,23.033809071371218
1681,0.0
1723,57.42618750000001
1729,6.7540000000000008
1735,70.79434999999998
1741,80.0
1931,12614.433354489029
2034,2625.803119999999
2,1, 6,15, 0,20, 0.00,60.00,Monday
702,20.64170340953223
703,20.875226080825663
704,20.661205708172646
705,20.836959930745996
706,21.528941046627453
1681,0.0
1723,0.0
1729,0.0
1735,17.6985875
1741,80.0
1931,9926.507915430984
2034,2625.803119999999
2,1, 6,15, 0,21, 0.00,60.00,Monday
702,20.5083242387412
703,20.587194214685817
704,20.432662933906469
705,20.618652668681198
706,20.800334718265807
1681,0.0
1723,0.0
1729,0.0
1735,0.0
1741,4.0
1931,6787.251871881301
2034,2625.803119999999
2,1, 6,15, 0,22, 0.00,60.00,Monday
702,20.447335424765304
703,20.401378952284487
704,20.250489730713224
705,20.441179956748216
706,20.535218650544907
1681,0.0
1723,0.0
1729,0.0
1735,0.0
1741,0.0
1931,5173.719949865861
2034,2625.803119999999
2,1, 6,15, 0,23, 0.00,60.00,Monday
702,21.223677264865274
703,20.933506946099219
704,20.835558456684404
705,20.94031842542917
706,20.97673339910078
1681,203.61968000000008
1723,38.28412500000001
1729,0.0
1735,35.397175
1741,40.0
1931,8811.604783964169
2034,2100.6424959999997
2,1, 6,15, 0,24, 0.00,60.00,Monday
702,21.19815124033385
703,20.89658301756497
704,20.906083019483935
705,20.88653429845158
706,20.905190941541428
1681,254.52460000000003
1723,0.0
1729,0.0
1735,0.0
1741,0.0
1931,6710.298090116621
2034,2625.803119999999
2,2, 6,16, 0, 1, 0.00,60.00,Tuesday
702,20.96339078401443
703,20.74389481019366
704,20.734184175205099
705,20.725319336494928
706,20.76553708119184
1681,63.631150000000008
1723,0.0
1729,0.0
1735,0.0
1741,0.0
1931,3150.0258285414727
2034,656.45078
2,2, 6,16, 0, 2, 0.00,60.00,Tuesday
702,20.986299467776985
703,20.63905938163046
704,20.60869977046176
705,20.619631773382616
706,20.653753661623946
1681,38.17869
1723,0.0
1729,0.0
1735,0.0
1741,0.0
1931,1661.7913095315958
2034,393.87046799999998
2,2, 6,16, 0, 3, 0.00,60.00,Tuesday
702,20.977833392333385
703,20.614353825924938
704,20.566351874801219
705,20.590965344202226
706,20.60560417036092
1681,0.0
1723,0.0
1729,0.0
1735,0.0
1741,0.0
1931,0.0
2034,0.0
2,2, 6,16, 0, 4, 0.00,60.00,Tuesday
702,20.996186852865436
703,20.52607849761214
704,20.46632907012743
705,20.495619938309859
706,20.49324804249625
1681,12.72623
1723,0.0
1729,0.0
1735,0.0
1741,0.0
1931,538.5952180417436
2034,131.290156
2,2, 6,16, 0, 5, 0.00,60.00,Tuesday
702,20.95984017887489
703,20.40444554319857
704,20.330682709624975
705,20.36938110753714
706,20.356749144967674
1681,0.0
1723,0.0
1729,0.0
1735,0.0
1741,0.0
1931,0.0
2034,0.0
2,2, 6,16, 0, 6, 0.00,60.00,Tuesday
702,20.980350547010258
703,20.449877218798258
704,20.376367447601657
705,20.41808423294276
706,20.39039308556006
1681,38.17869
1723,0.0
1729,0.0
1735,0.0
1741,0.0
1931,1835.3716030678236
2034,393.87046799999998
2,2, 6,16, 0, 7, 0.00,60.00,Tuesday
702,20.264653661503677
703,20.206835471010604
704,20.145673870670444
705,20.197432048657917
706,20.03032326648678
1681,0.0
1723,0.0
1729,0.0
1735,0.0
1741,0.0
1931,2452.425850548996
2034,2625.803119999999
2,2, 6,16, 0, 8, 0.00,60.00,Tuesday
702,20.192114984856038
703,20.358260265227526
704,20.33614418786795
705,20.362911189082543
706,20.145099879027627
1681,0.0
1723,0.0
1729,0.0
1735,0.0
1741,0.0
1931,3468.869282848671
2034,2625.803119999999
2,2, 6,16, 0, 9, 0.00,60.00,Tuesday
702,21.150651141585358
703,21.258313918152504
704,21.32322518470529
705,21.290969090938466
706,20.982329764423448
1681,165.44099000000004
1723,61.25460000000002
1729,50.65499999999999
1735,53.0957625
1741,48.0
1931,10646.279779348879
2034,2625.803119999999
2,2, 6,16, 0,10, 0.00,60.00,Tuesday
702,21.4873576565908
703,21.58659348191609
704,22.38398604124307
705,21.653983352516293
706,21.19314137875575
1681,254.52460000000003
1723,76.56825000000002
1729,67.53999999999999
1735,70.79434999999998
1741,80.0
1931,13869.421635682724
2034,2625.803119999999
2,2, 6,16, 0,11, 0.00,60.00,Tuesday
702,21.6035935492229
703,21.78749704188215
704,22.1913258101117
705,21.848921336789848
706,21.36157395847768
1681,254.52460000000003
1723,76.56825000000002
1729,67.53999999999999
1735,70.79434999999998
1741,80.0
1931,14624.85206243309
2034,2625.803119999999
2,2, 6,16, 0,12, 0.00,60.00,Tuesday
702,21.646595187253874
703,21.93908724994323
704,22.12528112177526
705,22.110159408120688
706,21.50598641035801
1681,254.52460000000003
1723,76.56825000000002
1729,67.53999999999999
1735,70.79434999999998
1741,80.0
1931,16505.533516048665
2034,2625.803119999999
2,2, 6,16, 0,13, 0.00,60.00,Tuesday
702,21.364026186975097
703,21.84520206114282
704,21.869994769941344
705,22.13298330529962
706,21.46620951788169
1681,254.52460000000003
1723,76.56825000000002
1729,67.53999999999999
1735,70.79434999999998
1741,80.0
1931,17727.849723184598
2034,2625.803119999999
2,2, 6,16, 0,14, 0.00,60.00,Tuesday
702,21.576325661809027
703,22.11155597667542
704,22.02083967991601
705,22.43774374392546
706,21.853845158721133
1681,254.52460000000003
1723,76.56825000000002
1729,67.53999999999999
1735,70.79434999999998
1741,80.0
1931,20474.550209065867
2034,2625.803119999999
2,2, 6,16, 0,15, 0.00,60.00,Tuesday
702,21.672789953955193
703,22.230009185001707
704,22.060629755814757
705,22.584568609284888
706,22.966983884875295
1681,254.52460000000003
1723,76.56825000000002
1729,67.53999999999999
1735,70.79434999999998
1741,80.0
1931,21866.925286005353
2034,2625.803119999999
2,2, 6,16, 0,16, 0.00,60.00,Tuesday
702,21.6741166045107
703,22.235593050493948
704,22.004511988625969
705,22.58950157241809
706,23.845318730587836
1681,254.52460000000003
1723,76.56825000000002
1729,67.53999999999999
1735,70.79434999999998
1741,80.0
1931,23460.904290249957
2034,2625.803119999999
2,2, 6,16, 0,17, 0.00,60.00,Tuesday
702,21.645597463631654
703,22.223256689711218
704,21.90332271794742
705,22.44565601300527
706,23.99809243896223
1681,254.52460000000003
1723,76.56825000000002
1729,67.53999999999999
1735,70.79434999999998
1741,80.0
1931,23765.128685633626
2034,2625.803119999999
2,2, 6,16, 0,18, 0.00,60.00,Tuesday
702,21.037972639862745
703,21.601808377426065
704,21.278313568702335
705,21.76317765977243
706,23.892249906077717
1681,101.80984
1723,76.56825000000002
1729,67.53999999999999
1735,70.79434999999998
1741,80.0
1931,17022.940180559286
2034,2625.803119999999
2,2, 6,16, 0,19, 0.00,60.00,Tuesday
702,20.760390631895473
703,21.180487417603204
704,20.84528994480951
705,21.166789467751916
706,22.81752735065681
1681,0.0
1723,65.08301250000003
1729,8.4425
1735,70.79434999999998
1741,80.0
1931,12862.450627273416
2034,2625.803119999999
2,2, 6,16, 0,20, 0.00,60.00,Tuesday
702,20.60584133232733
703,20.878664649826779
704,20.622717877479628
705,20.86305246136452
706,21.429360325228524
1681,0.0
1723,0.0
1729,0.0
1735,14.158869999999999
1741,76.0
1931,11212.843487578744
2034,2625.803119999999
2,2, 6,16, 0,21, 0.00,60.00,Tuesday
702,20.48125644323174
703,20.61168029168129
704,20.403866268981785
705,20.65992453134303
706,20.788294870867856
1681,0.0
1723,0.0
1729,0.0
1735,0.0
1741,0.0
1931,8314.354927191585
2034,2625.803119999999
2,2, 6,16, 0,22, 0.00,60.00,Tuesday
702,20.40139725361687
703,20.435946559310478
704,20.23168088328739
705,20.494599940478208
706,20.53937423836134
1681,0.0
1723,0.0
1729,0.0
1735,0.0
1741,0.0
1931,7145.779250345067
2034,2625.803119999999
2,2, 6,16, 0,23, 0.00,60.00,Tuesday
702,21.23442627272242
703,21.087913642511198
704,20.908196900552207
705,21.1069719610742
706,21.092429236565417
1681,203.61968000000008
1723,57.42618750000001
1729,30.393
1735,53.0957625
1741,70.0
1931,10219.77652605267
2034,2297.5777299999997
2,2, 6,16, 0,24, 0.00,60.00,Tuesday
702,21.235448407991098
703,21.028204874128403
704,20.904342036191126
705,21.029096059172717
706,20.96391973716184
1681,254.52460000000003
1723,49.769362500000017
1729,0.0
1735,42.47661
1741,12.0
1931,9117.42078483545
2034,2625.803119999999
2,3, 6,17, 0, 1, 0.00,60.00,Wednesday
702,20.995691091947447
703,20.859261569587369
704,20.76392741817907
705,20.84399729140382
706,20.8834939089535
1681,89.08361
1723,0.0
1729,0.0
1735,0.0
1741,0.0
1931,2146.463242786277
2034,919.031092
2,3, 6,17, 0, 2, 0.00,60.00,Wednesday
702,20.994271385213648
703,20.822285547864586
704,20.69180045577294
705,20.800680615850074
706,20.83301026949236
1681,89.08361
1723,0.0
1729,0.0
1735,0.0
1741,0.0
1931,2284.8991554198257
2034,919.031092
2,3, 6,17, 0, 3, 0.00,60.00,Wednesday
702,20.991053432065827
703,20.78818438496721
704,20.64297461857613
705,20.77004064041849
706,20.777413233041768
1681,63.631150000000008
1723,0.0
1729,0.0
1735,0.0
1741,0.0
1931,1689.572523324866
2034,656.45078
2,3, 6,17, 0, 4, 0.00,60.00,Wednesday
702,20.991389466808117
703,20.739385906824834
704,20.585217624234198
705,20.7114391378091
706,20.69691065482605
1681,38.17869
1723,0.0
1729,0.0
1735,0.0
1741,0.0
1931,884.7081115116296
2034,393.87046799999998
2,3, 6,17, 0, 5, 0.00,60.00,Wednesday
702,20.980287748999254
703,20.69746783278959
704,20.60010543711958
705,20.638878144855249
706,20.61103725259302
1681,0.0
1723,0.0
1729,0.0
1735,0.0
1741,0.0
1931,0.0
2034,0.0
2,3, 6,17, 0, 6, 0.00,60.00,Wednesday
702,21.001395366475458
703,20.877737920731
704,21.366059245331578
705,20.730315202501044
706,20.692401092747369
1681,127.26230000000001
1723,0.0
1729,54.032
1735,0.0
1741,0.0
1931,5299.188404849505
2034,2494.512963999999
2,3, 6,17, 0, 7, 0.00,60.00,Wednesday
702,20.2537086750448
703,20.483118640877227
704,22.131871217801988
705,20.4039914531746
706,20.188573213809609
1681,4.242076666666667
1723,0.0
1729,67.53999999999999
1735,0.0
1741,0.0
1931,8500.909251663572
2034,2625.803119999999
2,3, 6,17, 0, 8, 0.00,60.00,Wednesday
702,20.20925239382636
703,20.712051825281934
704,22.810914011896768
705,20.597809144782557
706,20.292252028444744
1681,0.0
1723,0.0
1729,67.53999999999999
1735,0.0
1741,0.0
1931,11327.985609984706
2034,2625.803119999999
2,3, 6,17, 0, 9, 0.00,60.00,Wednesday
702,21.182887695808348
703,21.579182055602865
704,23.678111214568369
705,21.584429098567797
706,21.14970649009563
1681,165.44099000000004
1723,72.73983750000002
1729,67.53999999999999
1735,67.25463249999999
1741,56.0
1931,16229.223669680545
2034,2625.803119999999
2,3, 6,17, 0,10, 0.00,60.00,Wednesday
702,21.531319628325769
703,21.93401549269405
704,23.719435965403556
705,21.98582117692147
706,21.427255486248034
1681,254.52460000000003
1723,76.56825000000002
1729,67.53999999999999
1735,70.79434999999998
1741,80.0
1931,19955.60785475625
2034,2625.803119999999
2,3, 6,17, 0,11, 0.00,60.00,Wednesday
702,21.567469641646974
703,22.167253155715547
704,23.062813076972739
705,22.24926381784875
706,21.6560408644458
1681,254.52460000000003
1723,76.56825000000002
1729,67.53999999999999
1735,70.79434999999998
1741,80.0
1931,22120.020527233
2034,2625.803119999999
2,3, 6,17, 0,12, 0.00,60.00,Wednesday
702,21.62236204207837
703,22.320648651823626
704,22.792850727821567
705,22.50891194391698
706,21.822320164092976
1681,254.52460000000003
1723,76.56825000000002
1729,67.53999999999999
1735,70.79434999999998
1741,80.0
1931,23157.99665295115
2034,2625.803119999999
2,3, 6,17, 0,13, 0.00,60.00,Wednesday
702,21.427301475293178
703,22.20409002725325
704,22.43354195220885
705,22.51615799620678
706,21.75769818937336
1681,254.52460000000003
1723,76.56825000000002
1729,67.53999999999999
1735,70.79434999999998
1741,80.0
1931,22548.669536838683
2034,2625.803119999999
2,3, 6,17, 0,14, 0.00,60.00,Wednesday
702,21.63580985043388
703,22.40615728442807
704,22.458883540744016
705,22.72230656379863
706,22.080504982943116
1681,254.52460000000003
1723,76.56825000000002
1729,67.53999999999999
1735,70.79434999999998
1741,80.0
1931,23137.665767078815
2034,2625.803119999999
2,3, 6,17, 0,15, 0.00,60.00,Wednesday
702,21.749590103546735
703,22.46983824387224
704,22.400851593426127
705,22.798521564851094
706,23.238087253563678
1681,254.52460000000003
1723,76.56825000000002
1729,67.53999999999999
1735,70.79434999999998
1741,80.0
1931,23173.34099693952
2034,2625.803119999999
2,3, 6,17, 0,16, 0.00,60.00,Wednesday
702,21.770661393775549
703,22.450259977705636
704,22.28197325144444
705,22.78314823795611
706,23.993328048124494
1681,254.52460000000003
1723,76.56825000000002
1729,67.53999999999999
1735,70.79434999999998
1741,80.0
1931,23036.199064357344
2034,2625.803119999999
2,3, 6,17, 0,17, 0.00,60.00,Wednesday
702,21.754898811257655
703,22.39097463467515
704,22.107065105846055
705,22.58995235304735
706,23.998005247411819
1681,254.52460000000003
1723,76.56825000000002
1729,67.53999999999999
1735,70.79434999999998
1741,80.0
1931,22891.1546153885
2034,2625.803119999999
2,3, 6,17, 0,18, 0.00,60.00,Wednesday
702,21.11466446679858
703,21.734855782361288
704,21.464374005151979
705,21.88274649869225
706,23.999024442419658
1681,178.16722000000005
1723,76.56825000000002
1729,67.53999999999999
1735,70.79434999999998
1741,80.0
1931,17594.86821521703
2034,2625.803119999999
2,3, 6,17, 0,19, 0.00,60.00,Wednesday
702,20.82337808979839
703,21.339537432819925
704,20.99212170186872
705,21.289157662789834
706,23.2851908020609
1681,6.363115
1723,76.56825000000002
1729,27.016000000000003
1735,70.79434999999998
1741,80.0
1931,12998.428197198255
2034,2625.803119999999
2,3, 6,17, 0,20, 0.00,60.00,Wednesday
702,20.689388211983805
703,21.01459971385697
704,20.780532316641858
705,20.922440732087183
706,21.71314900411524
1681,0.0
1723,15.31365
1729,0.0
1735,38.9368925
1741,80.0
1931,11325.906011816362
2034,2625.803119999999
2,3, 6,17, 0,21, 0.00,60.00,Wednesday
702,20.57474514965446
703,20.696056296116148
704,20.551671587673185
705,20.717929241875447
706,20.894440320279779
1681,0.0
1723,0.0
1729,0.0
1735,0.0
1741,20.0
1931,8363.495986184254
2034,2625.803119999999
2,3, 6,17, 0,22, 0.00,60.00,Wednesday
702,20.490743776967599
703,20.49850458355688
704,20.355866953078498
705,20.539111616373885
706,20.622159216262234
1681,0.0
1723,0.0
1729,0.0
1735,0.0
1741,0.0
1931,7432.297280306668
2034,2625.803119999999
2,3, 6,17, 0,23, 0.00,60.00,Wednesday
702,21.291734240855907
703,21.02309547984652
704,20.90655032532868
705,21.02859085178895
706,21.056504118164768
1681,203.61968000000008
1723,57.42618750000001
1729,20.262000000000005
1735,53.0957625
1741,62.0
1931,10012.380292639624
2034,2297.5777299999997
2,3, 6,17, 0,24, 0.00,60.00,Wednesday
702,21.26335345785169
703,20.949796596504976
704,20.838134998306843
705,20.94147642381933
706,20.95205374016544
1681,254.52460000000003
1723,7.656825
1729,0.0
1735,7.079434999999999
1741,0.0
1931,7589.539067245227
2034,2625.803119999999
End of Data
 Number of Records Written=         864
