Program Version,EnergyPlus, Version 9.3.0-622089b575, YMD=2021.12.15 04:51
1,5,Environment Title[],Latitude[deg],Longitude[deg],Time Zone[],Elevation[m]
2,8,Day of Simulation[],Month[],Day of Month[],DST Indicator[1=yes 0=no],Hour[],StartMinute[],EndMinute[],DayType
3,5,Cumulative Day of Simulation[],Month[],Day of Month[],DST Indicator[1=yes 0=no],DayType  ! When Daily Report Variables Requested
4,2,Cumulative Days of Simulation[],Month[]  ! When Monthly Report Variables Requested
5,1,Cumulative Days of Simulation[] ! When Run Period Report Variables Requested
6,1,Calendar Year of Simulation[] ! When Annual Report Variables Requested
7,1,Environment,Site Outdoor Air Drybulb Temperature [C] !Hourly
47,1,CORE_TOP,Zone Total Internal Total Heating Rate [W] !Hourly
704,1,CORE_TOP,Zone Mean Air Temperature [C] !Hourly
705,1,PERIMETER_TOP_ZN_3,Zone Mean Air Temperature [C] !Hourly
706,1,PERIMETER_TOP_ZN_2,Zone Mean Air Temperature [C] !Hourly
707,1,PERIMETER_TOP_ZN_1,Zone Mean Air Temperature [C] !Hourly
708,1,PERIMETER_TOP_ZN_4,Zone Mean Air Temperature [C] !Hourly
1683,1,CORE_TOP_LOTEMP,Zone Radiant HVAC Pump Electric Power [W] !Hourly
1725,1,PERI1_TOP_LOTEMP,Zone Radiant HVAC Pump Electric Power [W] !Hourly
1731,1,PERI2_TOP_LOTEMP,Zone Radiant HVAC Pump Electric Power [W] !Hourly
1737,1,PERI3_TOP_LOTEMP,Zone Radiant HVAC Pump Electric Power [W] !Hourly
1743,1,PERI4_TOP_LOTEMP,Zone Radiant HVAC Pump Electric Power [W] !Hourly
2009,1,HP_RADSYS,Heat Pump Electric Power [W] !Hourly
2037,1,HOT WATER LOOP HW SUPPLY PUMP2,Pump Electric Power [W] !Hourly
End of Data Dictionary
1,RUNPERIOD 1,  40.78, -73.97,  -5.00,  40.00
2,1, 1,21, 0, 1, 0.00,60.00,Holiday
7,-1.7549999999999997
47,2170.31579314564
704,17.16176822789084
705,13.765820039537042
706,14.234599462868692
707,14.031356385617661
708,14.717125116040564
1683,0.0
1725,0.0
1731,0.0
1737,0.0
1743,0.0
2009,0.0
2037,0.0
2,1, 1,21, 0, 2, 0.00,60.00,Holiday
7,-2.799999999999999
47,2170.31579314564
704,16.82109471745336
705,13.514119344808213
706,13.845136163815017
707,13.716585436469677
708,14.185831495424143
1683,0.0
1725,0.0
1731,0.0
1737,0.0
1743,0.0
2009,0.0
2037,0.0
2,1, 1,21, 0, 3, 0.00,60.00,Holiday
7,-3.3775
47,2170.31579314564
704,16.52357298916977
705,13.203250103769785
706,13.456794193041853
707,13.370914731234132
708,13.722786579159001
1683,0.0
1725,0.0
1731,0.0
1737,0.0
1743,0.0
2009,0.0
2037,0.0
2,1, 1,21, 0, 4, 0.00,60.00,Holiday
7,-3.5849999999999997
47,2170.31579314564
704,16.260143487258398
705,12.933317185978823
706,13.13509583095437
707,13.074404929608047
708,13.356835330510043
1683,0.0
1725,0.0
1731,0.0
1737,0.0
1743,0.0
2009,0.0
2037,0.0
2,1, 1,21, 0, 5, 0.00,60.00,Holiday
7,-3.2999999999999987
47,2170.31579314564
704,16.033806137635
705,12.727680366762629
706,12.888541733279379
707,12.845827387660421
708,13.07781945620116
1683,0.0
1725,0.0
1731,0.0
1737,0.0
1743,0.0
2009,0.0
2037,0.0
2,1, 1,21, 0, 6, 0.00,60.00,Holiday
7,-3.0375
47,2170.31579314564
704,15.839797496631292
705,12.551737050446427
706,12.689625436656002
707,12.673644738382152
708,12.85484424244898
1683,0.0
1725,0.0
1731,0.0
1737,0.0
1743,0.0
2009,0.0
2037,0.0
2,1, 1,21, 0, 7, 0.00,60.00,Holiday
7,-2.2225000000000008
47,2879.2057968242645
704,15.314472914885494
705,12.413661534210235
706,12.51532801589951
707,12.532101372947978
708,12.645230233227157
1683,0.0
1725,0.0
1731,0.0
1737,0.0
1743,0.0
2009,2770.933710262055
2037,1070.68001
2,1, 1,21, 0, 8, 0.00,60.00,Holiday
7,-1.6999999999999998
47,2879.2057968242645
704,17.36287043001997
705,15.094443322171859
706,15.507323282836632
707,15.261278853382592
708,15.61914485208417
1683,254.52460000000003
1725,76.56825000000002
1731,67.53999999999999
1737,70.79434999999998
1743,80.0
2009,17101.922386823113
2037,1070.68001
2,1, 1,21, 0, 9, 0.00,60.00,Holiday
7,-1.6999999999999998
47,2879.2057968242645
704,17.866776455862604
705,15.441946325921919
706,17.01231216522259
707,15.867886044590648
708,17.173973435416607
1683,0.0
1725,0.0
1731,0.0
1737,0.0
1743,0.0
2009,2761.4371758772824
2037,1070.68001
2,1, 1,21, 0,10, 0.00,60.00,Holiday
7,-1.1225
47,2879.2057968242645
704,16.4785734845787
705,14.337508408474943
706,15.313447305695192
707,14.705222226317844
708,15.993504110816982
1683,0.0
1725,0.0
1731,0.0
1737,0.0
1743,0.0
2009,2334.3619154818804
2037,1070.68001
2,1, 1,21, 0,11, 0.00,60.00,Holiday
7,0.02999999999999997
47,2879.2057968242645
704,16.108328585953126
705,14.20695144000386
706,14.779633338584139
707,14.649928729449253
708,14.880794583158615
1683,0.0
1725,0.0
1731,0.0
1737,0.0
1743,0.0
2009,2100.8729659735365
2037,1070.68001
2,1, 1,21, 0,12, 0.00,60.00,Holiday
7,0.8625000000000002
47,2879.2057968242645
704,15.959756156266394
705,14.213110892414444
706,14.619774303381452
707,14.706219849603974
708,14.653087029738112
1683,0.0
1725,0.0
1731,0.0
1737,0.0
1743,0.0
2009,1993.1283941008449
2037,1070.68001
2,1, 1,21, 0,13, 0.00,60.00,Holiday
7,1.1
47,2879.2057968242645
704,15.89292182298639
705,14.250695133450624
706,14.538457550405344
707,14.790501611721919
708,14.602853024580896
1683,0.0
1725,0.0
1731,0.0
1737,0.0
1743,0.0
2009,1986.1684642972348
2037,1070.68001
2,1, 1,21, 0,14, 0.00,60.00,Holiday
7,1.1
47,2879.2057968242645
704,15.84757444589106
705,14.275049988311622
706,14.492467210231041
707,14.841423680840075
708,14.629901526234244
1683,0.0
1725,0.0
1731,0.0
1737,0.0
1743,0.0
2009,1987.1656454702164
2037,1070.68001
2,1, 1,21, 0,15, 0.00,60.00,Holiday
7,0.8375
47,2879.2057968242645
704,15.801186787695397
705,14.194215192243309
706,14.378511943437175
707,14.792273107706063
708,14.603187865338246
1683,0.0
1725,0.0
1731,0.0
1737,0.0
1743,0.0
2009,2078.95327418356
2037,1070.68001
2,1, 1,21, 0,16, 0.00,60.00,Holiday
7,0.5999999999999999
47,2879.2057968242645
704,15.721091980489515
705,13.905062883081822
706,14.054467524804086
707,14.477736182383567
708,14.356839814828224
1683,0.0
1725,0.0
1731,0.0
1737,0.0
1743,0.0
2009,2087.924571212943
2037,1070.68001
2,1, 1,21, 0,17, 0.00,60.00,Holiday
7,0.5999999999999999
47,2879.2057968242645
704,15.596065152026768
705,13.73748025239476
706,13.866277170058334
707,14.239788559281724
708,14.164409669693536
1683,0.0
1725,0.0
1731,0.0
1737,0.0
1743,0.0
2009,2087.7945286788738
2037,1070.68001
2,1, 1,21, 0,18, 0.00,60.00,Holiday
7,0.5999999999999999
47,2879.2057968242645
704,15.437986348435612
705,13.571485765440438
706,13.685442493829026
707,13.970673199809573
708,13.87105741712115
1683,0.0
1725,0.0
1731,0.0
1737,0.0
1743,0.0
2009,2087.5522662246078
2037,1070.68001
2,1, 1,21, 0,19, 0.00,60.00,Holiday
7,0.5999999999999999
47,2170.31579314564
704,17.45519530738426
705,15.85071893087508
706,16.238059858969888
707,16.20717446275958
708,16.408403898025676
1683,254.52460000000003
1725,76.56825000000002
1731,67.53999999999999
1737,70.79434999999998
1743,80.0
2009,15028.684327782748
2037,1070.68001
2,1, 1,21, 0,20, 0.00,60.00,Holiday
7,0.5999999999999999
47,2170.31579314564
704,17.677820615195644
705,15.738629137066948
706,17.01313135989632
707,16.239148027347363
708,17.469805208720318
1683,0.0
1725,0.0
1731,0.0
1737,0.0
1743,0.0
2009,2286.9131316122554
2037,1070.68001
2,1, 1,21, 0,21, 0.00,60.00,Holiday
7,0.285
47,2170.31579314564
704,18.532631631216085
705,16.764896774825485
706,17.371094795117139
707,17.067093680364385
708,17.783762079113637
1683,254.52460000000003
1725,76.56825000000002
1731,67.53999999999999
1737,70.79434999999998
1743,80.0
2009,17009.191030666574
2037,1070.68001
2,1, 1,21, 0,22, 0.00,60.00,Holiday
7,0.0
47,2170.31579314564
704,18.925532204836537
705,16.692331576371055
706,17.786744456556034
707,17.233054189137368
708,17.907986217741013
1683,0.0
1725,0.0
1731,0.0
1737,0.0
1743,0.0
2009,2441.528818394464
2037,1070.68001
2,1, 1,21, 0,23, 0.00,60.00,Holiday
7,-0.315
47,2170.31579314564
704,17.997590475667143
705,15.014824501023148
706,16.856598141830305
707,15.444489358076975
708,18.00300614841264
1683,0.0
1725,0.0
1731,0.0
1737,0.0
1743,0.0
2009,0.0
2037,0.0
2,1, 1,21, 0,24, 0.00,60.00,Holiday
7,-0.5999999999999999
47,2170.31579314564
704,17.579588634365839
705,14.270760158057727
706,15.024600001547697
707,14.587005860018483
708,16.056350621539204
1683,0.0
1725,0.0
1731,0.0
1737,0.0
1743,0.0
2009,0.0
2037,0.0
2,2, 1,22, 0, 1, 0.00,60.00,Tuesday
7,-1.1774999999999998
47,2780.82959564914
704,19.561675080193174
705,16.77258761869956
706,17.196796433929785
707,16.977267762024959
708,17.553794444497379
1683,254.52460000000003
1725,76.56825000000002
1731,67.53999999999999
1737,70.79434999999998
1743,80.0
2009,25290.589541333324
2037,1070.68001
2,2, 1,22, 0, 2, 0.00,60.00,Tuesday
7,-1.9625
47,2780.82959564914
704,21.10607440869675
705,18.537137092474308
706,18.826840009422417
707,18.660146290588977
708,19.061601192894285
1683,38.17869
1725,76.56825000000002
1731,67.53999999999999
1737,70.79434999999998
1743,80.0
2009,16353.594631866286
2037,1070.68001
2,2, 1,22, 0, 3, 0.00,60.00,Tuesday
7,-2.2
47,2780.82959564914
704,21.181152972882427
705,19.074479655799775
706,19.398856778348209
707,19.188130385242759
708,19.663834832188877
1683,0.0
1725,76.56825000000002
1731,67.53999999999999
1737,70.79434999999998
1743,80.0
2009,10185.64734967511
2037,1070.68001
2,2, 1,22, 0, 4, 0.00,60.00,Tuesday
7,-2.515
47,2780.82959564914
704,21.173495190426974
705,19.576852216799887
706,20.289255138560355
707,19.69209008922514
708,20.928646100486394
1683,0.0
1725,76.56825000000002
1731,54.032
1737,70.79434999999998
1743,40.0
2009,11406.418629888569
2037,1070.68001
2,2, 1,22, 0, 5, 0.00,60.00,Tuesday
7,-2.799999999999999
47,2780.82959564914
704,21.18149231514792
705,19.933045937081397
706,20.98570328521638
707,20.053776921483015
708,21.047847894451729
1683,50.90492
1725,76.56825000000002
1731,37.147
1737,70.79434999999998
1743,36.0
2009,10407.518740981654
2037,1070.68001
2,2, 1,22, 0, 6, 0.00,60.00,Tuesday
7,-3.0624999999999997
47,3119.6039812842798
704,21.25824795531688
705,19.996805068762887
706,21.025950799729878
707,20.21778954778779
708,20.97225351384617
1683,25.45246
1725,76.56825000000002
1731,33.769999999999999
1737,70.79434999999998
1743,44.0
2009,8865.636115067178
2037,1070.68001
2,2, 1,22, 0, 7, 0.00,60.00,Tuesday
7,-3.2999999999999987
47,4245.451607531919
704,20.79442245432562
705,20.146490993396289
706,20.511875108587679
707,20.34671691243965
708,20.58157428747857
1683,237.55629333333338
1725,76.56825000000002
1731,67.53999999999999
1737,70.79434999999998
1743,80.0
2009,10686.486182844013
2037,1070.68001
2,2, 1,22, 0, 8, 0.00,60.00,Tuesday
7,-3.6150000000000008
47,6049.250893545528
704,20.983395868691436
705,20.31600812046496
706,20.771602825777859
707,20.50881151249206
708,20.637502282281777
1683,165.44099000000004
1725,76.56825000000002
1731,57.40899999999999
1737,70.79434999999998
1743,80.0
2009,8911.903429646529
2037,1070.68001
2,2, 1,22, 0, 9, 0.00,60.00,Tuesday
7,-4.1625
47,18101.736647504957
704,21.525741191640486
705,20.867857818156254
706,21.848788626364607
707,21.56727808892024
708,20.98427002218406
1683,0.0
1725,3.8284125
1731,0.0
1737,70.79434999999998
1743,52.0
2009,4387.6036355064929
2037,1070.68001
2,2, 1,22, 0,10, 0.00,60.00,Tuesday
7,-4.4
47,18101.736647504957
704,21.295613856614588
705,20.98978889642425
706,22.20134608324562
707,22.475910504665813
708,21.019407988769325
1683,0.0
1725,0.0
1731,0.0
1737,53.0957625
1743,20.0
2009,3836.692239285082
2037,1070.68001
2,2, 1,22, 0,11, 0.00,60.00,Tuesday
7,-4.4
47,18265.019990212222
704,21.323324394168183
705,21.098747011699598
706,21.7959672871465
707,23.135092792821934
708,21.075357018252995
1683,0.0
1725,0.0
1731,0.0
1737,7.079434999999999
1743,0.0
2009,3147.089589064059
2037,1070.68001
2,2, 1,22, 0,12, 0.00,60.00,Tuesday
7,-4.714999999999999
47,18101.736647504957
704,21.45353772191327
705,21.131702140434663
706,21.615437106148954
707,23.81752449035975
708,21.112035676406497
1683,0.0
1725,0.0
1731,0.0
1737,0.0
1743,0.0
2009,3174.1994343956664
2037,1070.68001
2,2, 1,22, 0,13, 0.00,60.00,Tuesday
7,-5.577499999999999
47,14572.507325244462
704,21.333711407071524
705,20.989845907628767
706,21.303112580261897
707,23.998497352968163
708,21.067357368406
1683,0.0
1725,0.0
1731,0.0
1737,38.9368925
1743,20.0
2009,4168.934571401179
2037,1070.68001
2,2, 1,22, 0,14, 0.00,60.00,Tuesday
7,-5.8375
47,18101.73664750495
704,21.635461144968667
705,21.161863643014237
706,21.357536198295568
707,23.999794396851948
708,21.228064147630627
1683,0.0
1725,0.0
1731,0.0
1737,0.0
1743,0.0
2009,3553.10530351681
2037,1070.68001
2,2, 1,22, 0,15, 0.00,60.00,Tuesday
7,-5.599999999999998
47,18265.019990212222
704,21.85875528960234
705,21.12367785946696
706,21.30065018172747
707,23.99977841782252
708,21.80132722920688
1683,0.0
1725,0.0
1731,0.0
1737,0.0
1743,0.0
2009,3517.6344539043036
2037,1070.68001
2,2, 1,22, 0,16, 0.00,60.00,Tuesday
7,-5.8625
47,18101.736647504957
704,21.939681386231855
705,21.013167502627924
706,21.112398912525145
707,23.648717084086205
708,21.968765934269379
1683,0.0
1725,0.0
1731,3.3770000000000004
1737,38.9368925
1743,0.0
2009,3881.8588115460286
2037,1070.68001
2,2, 1,22, 0,17, 0.00,60.00,Tuesday
7,-6.414999999999997
47,18101.736647504957
704,21.921448395607265
705,21.052889094588744
706,21.102063369799859
707,22.739937593416188
708,21.652215281257719
1683,0.0
1725,0.0
1731,10.131
1737,7.079434999999999
1743,0.0
2009,3741.95556059215
2037,1070.68001
2,2, 1,22, 0,18, 0.00,60.00,Tuesday
7,-7.277500000000002
47,8609.530172617446
704,21.220179488009529
705,20.55452521026291
706,20.664254028436959
707,21.650350172974869
708,20.796288282905797
1683,25.45246
1725,0.0
1731,64.16299999999998
1737,68.43453833333331
1743,68.66666666666666
2009,7115.223902458065
2037,1070.68001
2,2, 1,22, 0,19, 0.00,60.00,Tuesday
7,-8.64
47,5413.9869089617409
704,21.026006232752427
705,20.23707308998543
706,20.382186801419914
707,20.907938861077633
708,20.436563804375333
1683,80.59945666666667
1725,61.25460000000002
1731,67.53999999999999
1737,70.79434999999998
1743,80.0
2009,9772.53855109603
2037,1070.68001
2,2, 1,22, 0,20, 0.00,60.00,Tuesday
7,-10.029999999999998
47,5413.98690896174
704,21.00635490585834
705,20.19082099128378
706,20.365407818061024
707,20.76964978236467
708,20.43526312449479
1683,114.53607
1725,76.56825000000002
1731,67.53999999999999
1737,70.79434999999998
1743,80.0
2009,10527.929217702162
2037,1070.68001
2,2, 1,22, 0,21, 0.00,60.00,Tuesday
7,-10.8625
47,4829.719258246828
704,21.008994936892134
705,20.108348949996807
706,20.3429263337059
707,20.623381351792465
708,20.50202454045045
1683,127.26230000000001
1725,76.56825000000002
1731,67.53999999999999
1737,70.79434999999998
1743,80.0
2009,10776.356386782516
2037,1070.68001
2,2, 1,22, 0,22, 0.00,60.00,Tuesday
7,-11.6775
47,4829.719258246828
704,20.999287430025669
705,19.980287514245757
706,20.31091754399527
707,20.451329713106895
708,20.519686086508366
1683,127.26230000000001
1725,76.56825000000002
1731,67.53999999999999
1737,70.79434999999998
1743,80.0
2009,10897.327484675418
2037,1070.68001
2,2, 1,22, 0,23, 0.00,60.00,Tuesday
7,-12.515000000000005
47,3927.819615240021
704,21.74647040589435
705,19.093915416082387
706,19.76049310893068
707,19.617015119255826
708,19.976942784390574
1683,4.242076666666667
1725,76.56825000000002
1731,67.53999999999999
1737,70.79434999999998
1743,80.0
2009,6207.283182962849
2037,1070.68001
2,2, 1,22, 0,24, 0.00,60.00,Tuesday
7,-13.0625
47,3635.6857898825685
704,21.168778126101637
705,18.949758527618689
706,19.855321721146614
707,19.743329855597695
708,19.873705089946346
1683,25.45246
1725,76.56825000000002
1731,67.53999999999999
1737,70.79434999999998
1743,80.0
2009,5971.952477110086
2037,1070.68001
2,3, 1,23, 0, 1, 0.00,60.00,Wednesday
7,-13.614999999999999
47,2780.82959564914
704,20.81088484586762
705,18.387199122241787
706,18.71724817996227
707,18.902653644713046
708,18.71378128166545
1683,0.0
1725,0.0
1731,0.0
1737,0.0
1743,0.0
2009,0.0
2037,0.0
2,3, 1,23, 0, 2, 0.00,60.00,Wednesday
7,-14.1625
47,2780.82959564914
704,20.239415749031524
705,17.809264077314987
706,17.94520830307829
707,18.19997587281662
708,17.930288571793836
1683,0.0
1725,0.0
1731,0.0
1737,0.0
1743,0.0
2009,0.0
2037,0.0
2,3, 1,23, 0, 3, 0.00,60.00,Wednesday
7,-14.4
47,2780.82959564914
704,19.830481944853056
705,17.596148781723337
706,17.710644410007999
707,17.972480714861637
708,17.68656236246588
1683,0.0
1725,0.0
1731,0.0
1737,0.0
1743,0.0
2009,0.0
2037,0.0
2,3, 1,23, 0, 4, 0.00,60.00,Wednesday
7,-14.714999999999998
47,2780.82959564914
704,19.502272017118039
705,17.48087199342236
706,17.565453082217127
707,17.824447856979199
708,17.5345170914511
1683,0.0
1725,0.0
1731,0.0
1737,0.0
1743,0.0
2009,0.0
2037,0.0
2,3, 1,23, 0, 5, 0.00,60.00,Wednesday
7,-15.0
47,2780.82959564914
704,19.213695325266465
705,17.16645810657428
706,17.232092476784069
707,17.49113024927267
708,17.194661821426686
1683,0.0
1725,0.0
1731,0.0
1737,0.0
1743,0.0
2009,0.0
2037,0.0
2,3, 1,23, 0, 6, 0.00,60.00,Wednesday
7,-15.315000000000003
47,3119.6039812842798
704,18.935148806846127
705,16.741383252589878
706,16.794933886452236
707,17.064473645704817
708,16.751051280796714
1683,0.0
1725,0.0
1731,0.0
1737,0.0
1743,0.0
2009,0.0
2037,0.0
2,3, 1,23, 0, 7, 0.00,60.00,Wednesday
7,-15.6
47,4245.451607531919
704,19.366194953411048
705,17.555189358095583
706,17.66422421386012
707,17.860264187369329
708,17.586338852798737
1683,254.52460000000003
1725,76.56825000000002
1731,67.53999999999999
1737,70.79434999999998
1743,80.0
2009,18509.173660442502
2037,1070.68001
2,3, 1,23, 0, 8, 0.00,60.00,Wednesday
7,-15.6
47,6049.250893545528
704,19.95013928008789
705,17.901057440097405
706,18.21398335197474
707,18.260640849739056
708,17.91241987021521
1683,254.52460000000003
1725,76.56825000000002
1731,67.53999999999999
1737,70.79434999999998
1743,80.0
2009,25251.448436928236
2037,1070.68001
2,3, 1,23, 0, 9, 0.00,60.00,Wednesday
7,-15.6
47,18101.736647504957
704,21.025947770429619
705,18.923503082803959
706,20.12006066741141
707,19.82265279549065
708,19.61006087020544
1683,101.80984
1725,76.56825000000002
1731,64.16299999999998
1737,70.79434999999998
1743,70.0
2009,18693.65620284254
2037,1070.68001
2,3, 1,23, 0,10, 0.00,60.00,Wednesday
7,-15.6
47,18101.736647504957
704,21.552510426158155
705,19.91492279332312
706,21.015765627885349
707,21.11445444981304
708,20.62768142886087
1683,0.0
1725,19.1420625
1731,27.016000000000003
1737,70.79434999999998
1743,72.0
2009,7319.725333845336
2037,1070.68001
2,3, 1,23, 0,11, 0.00,60.00,Wednesday
7,-14.969999999999994
47,18265.019990212222
704,21.746386201452667
705,20.268248075196366
706,20.983994863715293
707,21.72797172265166
708,20.685207683772068
1683,0.0
1725,0.0
1731,37.147
1737,70.79434999999998
1743,80.0
2009,6408.793423649761
2037,1070.68001
2,3, 1,23, 0,12, 0.00,60.00,Wednesday
7,-13.8225
47,18101.736647504953
704,21.984844872406904
705,20.39966382005324
706,20.92671266989713
707,22.026001134224985
708,20.607510110315468
1683,0.0
1725,0.0
1731,0.0
1737,0.0
1743,0.0
2009,4546.979617739941
2037,1070.68001
2,3, 1,23, 0,13, 0.00,60.00,Wednesday
7,-13.0375
47,14572.507325244462
704,21.926914150892836
705,20.381436096500626
706,20.904898877178213
707,22.25518252168613
708,20.65628309061358
1683,0.0
1725,0.0
1731,57.40899999999999
1737,70.79434999999998
1743,80.0
2009,6827.572774202839
2037,1070.68001
2,3, 1,23, 0,14, 0.00,60.00,Wednesday
7,-12.484999999999996
47,18101.736647504957
704,22.208031959119379
705,20.665889040138777
706,21.092349406829663
707,22.347966192285946
708,20.978604524730515
1683,0.0
1725,0.0
1731,0.0
1737,0.0
1743,0.0
2009,4496.810737919294
2037,1070.68001
2,3, 1,23, 0,15, 0.00,60.00,Wednesday
7,-11.937499999999999
47,18265.019990212222
704,22.369959217353718
705,20.7193367298922
706,21.064709026434845
707,22.996789608366606
708,21.507914225583929
1683,0.0
1725,0.0
1731,0.0
1737,0.0
1743,0.0
2009,4453.354990453168
2037,1070.68001
2,3, 1,23, 0,16, 0.00,60.00,Wednesday
7,-11.385
47,18101.736647504957
704,22.46755130509247
705,20.730691523375424
706,21.03772360664518
707,23.124631846055928
708,22.26435518968919
1683,0.0
1725,0.0
1731,0.0
1737,0.0
1743,0.0
2009,4416.8991137784819
2037,1070.68001
2,3, 1,23, 0,17, 0.00,60.00,Wednesday
7,-10.8375
47,18101.736647504957
704,22.454814943346528
705,20.64426828619901
706,20.89795569919982
707,22.279229057057223
708,21.828257868468687
1683,0.0
1725,0.0
1731,0.0
1737,0.0
1743,0.0
2009,4316.082106242344
2037,1070.68001
2,3, 1,23, 0,18, 0.00,60.00,Wednesday
7,-10.599999999999996
47,8609.530172617446
704,21.742760892515315
705,20.263696946232757
706,20.545597743666453
707,21.219724502359314
708,20.893974908852134
1683,0.0
1725,7.656825
1731,67.53999999999999
1737,70.79434999999998
1743,72.0
2009,7197.334881754631
2037,1070.68001
2,3, 1,23, 0,19, 0.00,60.00,Wednesday
7,-10.599999999999996
47,5413.9869089617409
704,21.154427018276104
705,20.140104810300323
706,20.473732299088814
707,20.810155553434226
708,20.709800084078215
1683,25.45246
1725,76.56825000000002
1731,67.53999999999999
1737,70.79434999999998
1743,80.0
2009,8305.868180154703
2037,1070.68001
2,3, 1,23, 0,20, 0.00,60.00,Wednesday
7,-10.285
47,5413.9869089617409
704,21.02927938348199
705,20.096794361303777
706,20.456736740364158
707,20.73525614259212
708,20.69986672993411
1683,76.35738
1725,76.56825000000002
1731,67.53999999999999
1737,70.79434999999998
1743,80.0
2009,8484.86763394112
2037,1070.68001
2,3, 1,23, 0,21, 0.00,60.00,Wednesday
7,-10.0
47,4829.719258246828
704,21.03613648733999
705,20.073907110088049
706,20.451920580127003
707,20.67069402024675
708,20.716046618327284
1683,89.08361
1725,76.56825000000002
1731,67.53999999999999
1737,70.79434999999998
1743,80.0
2009,9002.446351078443
2037,1070.68001
2,3, 1,23, 0,22, 0.00,60.00,Wednesday
7,-9.685000000000004
47,4829.719258246828
704,20.700085899114375
705,19.9101263591538
706,20.211171936925007
707,20.488130416978128
708,20.406747127373014
1683,0.0
1725,0.0
1731,0.0
1737,0.0
1743,0.0
2009,4217.070561104953
2037,1070.68001
2,3, 1,23, 0,23, 0.00,60.00,Wednesday
7,-9.400000000000003
47,3927.819615240021
704,21.01162349605965
705,19.849546851561976
706,20.15397171047892
707,20.401722708305795
708,20.360709946635759
1683,0.0
1725,0.0
1731,0.0
1737,0.0
1743,0.0
2009,0.0
2037,0.0
2,3, 1,23, 0,24, 0.00,60.00,Wednesday
7,-9.400000000000003
47,3635.6857898825685
704,21.098247482609133
705,19.58881170019318
706,19.90713901338736
707,20.131070327795098
708,20.11093633451516
1683,0.0
1725,0.0
1731,0.0
1737,0.0
1743,0.0
2009,0.0
2037,0.0
End of Data
 Number of Records Written=        1008
