Program Version,EnergyPlus, Version 9.5.0-de239b2e5f, YMD=2021.07.28 01:46
1,5,Environment Title[],Latitude[deg],Longitude[deg],Time Zone[],Elevation[m]
2,8,Day of Simulation[],Month[],Day of Month[],DST Indicator[1=yes 0=no],Hour[],StartMinute[],EndMinute[],DayType
3,5,Cumulative Day of Simulation[],Month[],Day of Month[],DST Indicator[1=yes 0=no],DayType  ! When Daily Report Variables Requested
4,2,Cumulative Days of Simulation[],Month[]  ! When Monthly Report Variables Requested
5,1,Cumulative Days of Simulation[] ! When Run Period Report Variables Requested
6,1,Calendar Year of Simulation[] ! When Annual Report Variables Requested
675,1,PERIMETER_TOP_ZN_3,Zone Mean Air Temperature [C] !Hourly
1748,1,PERI3_TOP_LOTEMP,Zone Radiant HVAC Heating Rate [W] !Hourly
End of Data Dictionary
1,RUNPERIOD 1,  40.78, -73.97,  -5.00,  40.00
2,1, 1,20, 0, 1, 0.00,60.00,Holiday
675,20.791220521898379
1748,8559.361365625236
2,1, 1,20, 0, 2, 0.00,60.00,Holiday
675,20.49182755889591
1748,8444.973040625982
2,1, 1,20, 0, 3, 0.00,60.00,Holiday
675,20.454777637099949
1748,8400.451967970115
2,1, 1,20, 0, 4, 0.00,60.00,Holiday
675,20.490129679629928
1748,8362.281288610493
2,1, 1,20, 0, 5, 0.00,60.00,Holiday
675,20.62021316008431
1748,11738.799858793971
2,1, 1,20, 0, 6, 0.00,60.00,Holiday
675,20.795155437596479
1748,9932.811333407535
2,1, 1,20, 0, 7, 0.00,60.00,Holiday
675,20.514247442258104
1748,0.0
2,1, 1,20, 0, 8, 0.00,60.00,Holiday
675,20.102635161750198
1748,0.0
2,1, 1,20, 0, 9, 0.00,60.00,Holiday
675,20.031482933208474
1748,0.0
2,1, 1,20, 0,10, 0.00,60.00,Holiday
675,20.15223074050889
1748,0.0
2,1, 1,20, 0,11, 0.00,60.00,Holiday
675,20.62339154103325
1748,8018.961902441884
2,1, 1,20, 0,12, 0.00,60.00,Holiday
675,21.159078936924506
1748,6498.903810613724
2,1, 1,20, 0,13, 0.00,60.00,Holiday
675,21.41721457214175
1748,5793.156766510639
2,1, 1,20, 0,14, 0.00,60.00,Holiday
675,21.48661496144046
1748,5573.507229228477
2,1, 1,20, 0,15, 0.00,60.00,Holiday
675,21.469878086331304
1748,5586.4267709779219
2,1, 1,20, 0,16, 0.00,60.00,Holiday
675,21.399498913138154
1748,5732.251334119286
2,1, 1,20, 0,17, 0.00,60.00,Holiday
675,21.24193683890467
1748,6069.228279820722
2,1, 1,20, 0,18, 0.00,60.00,Holiday
675,21.04066949181172
1748,6498.564996941275
2,1, 1,20, 0,19, 0.00,60.00,Holiday
675,20.784846635757647
1748,7017.013947243302
2,1, 1,20, 0,20, 0.00,60.00,Holiday
675,20.593464166026107
1748,7404.243596035757
2,1, 1,20, 0,21, 0.00,60.00,Holiday
675,20.566553183908075
1748,7450.602239151044
2,1, 1,20, 0,22, 0.00,60.00,Holiday
675,20.694753426144698
1748,7180.782786064495
2,1, 1,20, 0,23, 0.00,60.00,Holiday
675,20.745034962194599
1748,7061.33755190247
2,1, 1,20, 0,24, 0.00,60.00,Holiday
675,20.776032624106099
1748,7036.871552443647
2,2, 1,21, 0, 1, 0.00,60.00,Tuesday
675,20.883189140822056
1748,6802.410931953809
2,2, 1,21, 0, 2, 0.00,60.00,Tuesday
675,20.803573291837908
1748,6991.946874762529
2,2, 1,21, 0, 3, 0.00,60.00,Tuesday
675,20.800262282010434
1748,7010.166851708546
2,2, 1,21, 0, 4, 0.00,60.00,Tuesday
675,20.821203457985815
1748,6976.75269028694
2,2, 1,21, 0, 5, 0.00,60.00,Tuesday
675,20.853296966275197
1748,6913.765783029761
2,2, 1,21, 0, 6, 0.00,60.00,Tuesday
675,20.906058001082003
1748,6813.94634000276
2,2, 1,21, 0, 7, 0.00,60.00,Tuesday
675,21.26450252536936
1748,6092.4232311173059
2,2, 1,21, 0, 8, 0.00,60.00,Tuesday
675,19.037051547012756
1748,10619.050689791085
2,2, 1,21, 0, 9, 0.00,60.00,Tuesday
675,19.44354528881511
1748,9562.866995810138
2,2, 1,21, 0,10, 0.00,60.00,Tuesday
675,19.781066109493087
1748,8672.12370923587
2,2, 1,21, 0,11, 0.00,60.00,Tuesday
675,20.017197407933815
1748,8058.010697363139
2,2, 1,21, 0,12, 0.00,60.00,Tuesday
675,20.187599154102167
1748,7611.5194345571339
2,2, 1,21, 0,13, 0.00,60.00,Tuesday
675,20.162547558682609
1748,7598.974316581689
2,2, 1,21, 0,14, 0.00,60.00,Tuesday
675,20.331872764055654
1748,7208.617754934023
2,2, 1,21, 0,15, 0.00,60.00,Tuesday
675,20.327670883442165
1748,7184.997057863351
2,2, 1,21, 0,16, 0.00,60.00,Tuesday
675,20.22778664292048
1748,7400.637230926642
2,2, 1,21, 0,17, 0.00,60.00,Tuesday
675,20.196052878372819
1748,7484.259115201159
2,2, 1,21, 0,18, 0.00,60.00,Tuesday
675,19.82715608895005
1748,8270.129591141604
2,2, 1,21, 0,19, 0.00,60.00,Tuesday
675,19.58740548704007
1748,8805.736929189648
2,2, 1,21, 0,20, 0.00,60.00,Tuesday
675,19.50373586272951
1748,8989.49260395622
2,2, 1,21, 0,21, 0.00,60.00,Tuesday
675,19.429564963526706
1748,9145.537473794706
2,2, 1,21, 0,22, 0.00,60.00,Tuesday
675,21.780806431101707
1748,2534.175356275424
2,2, 1,21, 0,23, 0.00,60.00,Tuesday
675,21.473122078074988
1748,5135.315988911659
2,2, 1,21, 0,24, 0.00,60.00,Tuesday
675,21.299974846933219
1748,5772.827360151817
End of Data
 Number of Records Written=          96
