Program Version,EnergyPlus, Version 9.3.0-622089b575, YMD=2021.12.16 03:07
1,5,Environment Title[],Latitude[deg],Longitude[deg],Time Zone[],Elevation[m]
2,8,Day of Simulation[],Month[],Day of Month[],DST Indicator[1=yes 0=no],Hour[],StartMinute[],EndMinute[],DayType
3,5,Cumulative Day of Simulation[],Month[],Day of Month[],DST Indicator[1=yes 0=no],DayType  ! When Daily Report Variables Requested
4,2,Cumulative Days of Simulation[],Month[]  ! When Monthly Report Variables Requested
5,1,Cumulative Days of Simulation[] ! When Run Period Report Variables Requested
6,1,Calendar Year of Simulation[] ! When Annual Report Variables Requested
702,1,CORE_TOP,Zone Mean Air Temperature [C] !Hourly
703,1,PERIMETER_TOP_ZN_3,Zone Mean Air Temperature [C] !Hourly
704,1,PERIMETER_TOP_ZN_2,Zone Mean Air Temperature [C] !Hourly
705,1,PERIMETER_TOP_ZN_1,Zone Mean Air Temperature [C] !Hourly
706,1,PERIMETER_TOP_ZN_4,Zone Mean Air Temperature [C] !Hourly
1681,1,CORE_TOP_LOTEMP,Zone Radiant HVAC Pump Electric Power [W] !Hourly
1723,1,PERI1_TOP_LOTEMP,Zone Radiant HVAC Pump Electric Power [W] !Hourly
1729,1,PERI2_TOP_LOTEMP,Zone Radiant HVAC Pump Electric Power [W] !Hourly
1735,1,PERI3_TOP_LOTEMP,Zone Radiant HVAC Pump Electric Power [W] !Hourly
1741,1,PERI4_TOP_LOTEMP,Zone Radiant HVAC Pump Electric Power [W] !Hourly
1931,1,COOLSYS1 CHILLER1,Chiller Electric Power [W] !Hourly
2034,1,CHILLED WATER LOOP CHW SUPPLY PUMP2,Pump Electric Power [W] !Hourly
End of Data Dictionary
1,RUNPERIOD 1,  40.78, -73.97,  -5.00,  40.00
2,1, 6,15, 0, 1, 0.00,60.00,Monday
702,20.980371856260555
703,20.779210346981448
704,20.76336071470356
705,20.75887614328995
706,20.792680500119969
1681,63.631150000000008
1723,0.0
1729,0.0
1735,0.0
1741,0.0
1931,1531.1183219128939
2034,656.45078
2,1, 6,15, 0, 2, 0.00,60.00,Monday
702,20.996015567783485
703,20.724898318162717
704,20.688780660883706
705,20.703621328152769
706,20.728578996943754
1681,89.08361
1723,0.0
1729,0.0
1735,0.0
1741,0.0
1931,2290.8636310119529
2034,919.031092
2,1, 6,15, 0, 3, 0.00,60.00,Monday
702,20.991980927231429
703,20.70877529593607
704,20.65388375970894
705,20.683139469409978
706,20.68869194279748
1681,76.35738
1723,0.0
1729,0.0
1735,0.0
1741,0.0
1931,2087.255586918121
2034,787.740936
2,1, 6,15, 0, 4, 0.00,60.00,Monday
702,20.988371372510593
703,20.676681119841544
704,20.60986427651214
705,20.6525960562514
706,20.63633719666013
1681,63.631150000000008
1723,0.0
1729,0.0
1735,0.0
1741,0.0
1931,1704.6579269767227
2034,656.45078
2,1, 6,15, 0, 5, 0.00,60.00,Monday
702,20.990057849083688
703,20.63875642598264
704,20.583935241285095
705,20.602487629778076
706,20.57221240152294
1681,38.17869
1723,0.0
1729,0.0
1735,0.0
1741,0.0
1931,969.0318403509812
2034,393.87046799999998
2,1, 6,15, 0, 6, 0.00,60.00,Monday
702,20.996585198800316
703,20.789703794814768
704,21.0554376195235
705,20.683418939113137
706,20.641340826897016
1681,76.35738
1723,0.0
1729,37.147
1735,0.0
1741,0.0
1931,3758.9907951531815
2034,1838.062184
2,1, 6,15, 0, 7, 0.00,60.00,Monday
702,20.273467785171709
703,20.440202932761808
704,21.24416428102737
705,20.37242066599675
706,20.1718597577746
1681,4.242076666666667
1723,0.0
1729,67.53999999999999
1735,0.0
1741,0.0
1931,5225.805051340642
2034,2625.803119999999
2,1, 6,15, 0, 8, 0.00,60.00,Monday
702,20.240693994248596
703,20.630511208182936
704,22.381092872598509
705,20.54634619189705
706,20.265511215933438
1681,0.0
1723,0.0
1729,67.53999999999999
1735,0.0
1741,0.0
1931,6187.3717353792449
2034,2625.803119999999
2,1, 6,15, 0, 9, 0.00,60.00,Monday
702,21.244663710964728
703,21.467585922450789
704,23.67737345767581
705,21.491620905718106
706,21.07860496557598
1681,178.16722000000005
1723,70.18756250000003
1729,67.53999999999999
1735,67.25463249999999
1741,52.0
1931,13406.709347894319
2034,2625.803119999999
2,1, 6,15, 0,10, 0.00,60.00,Monday
702,21.5990724049342
703,21.808119716404517
704,23.671769976694614
705,21.854364195449074
706,21.325938241395727
1681,254.52460000000003
1723,76.56825000000002
1729,67.53999999999999
1735,70.79434999999998
1741,80.0
1931,15116.882018935145
2034,2625.803119999999
2,1, 6,15, 0,11, 0.00,60.00,Monday
702,21.68386712329682
703,21.980000517122585
704,22.833114310404505
705,21.991803607765914
706,21.49288197094104
1681,254.52460000000003
1723,76.56825000000002
1729,67.53999999999999
1735,70.79434999999998
1741,80.0
1931,15077.591968531855
2034,2625.803119999999
2,1, 6,15, 0,12, 0.00,60.00,Monday
702,21.72738684779669
703,22.084409842761028
704,22.52791145711016
705,22.16951822689938
706,21.606558039215505
1681,254.52460000000003
1723,76.56825000000002
1729,67.53999999999999
1735,70.79434999999998
1741,80.0
1931,15385.676735771816
2034,2625.803119999999
2,1, 6,15, 0,13, 0.00,60.00,Monday
702,21.473855958304033
703,21.92330515772551
704,22.13183176588872
705,22.085432300733879
706,21.48257148871833
1681,254.52460000000003
1723,76.56825000000002
1729,67.53999999999999
1735,70.79434999999998
1741,80.0
1931,15222.748980244676
2034,2625.803119999999
2,1, 6,15, 0,14, 0.00,60.00,Monday
702,21.660184165399508
703,22.154515472737076
704,22.195615124326787
705,22.393973512231889
706,21.823474490002878
1681,254.52460000000003
1723,76.56825000000002
1729,67.53999999999999
1735,70.79434999999998
1741,80.0
1931,18556.426852325752
2034,2625.803119999999
2,1, 6,15, 0,15, 0.00,60.00,Monday
702,21.750626673792657
703,22.273435587090668
704,22.203240480113796
705,22.59323730989735
706,23.103835584108489
1681,254.52460000000003
1723,76.56825000000002
1729,67.53999999999999
1735,70.79434999999998
1741,80.0
1931,20177.956528310417
2034,2625.803119999999
2,1, 6,15, 0,16, 0.00,60.00,Monday
702,21.78886522172241
703,22.27897785390078
704,22.11391609615666
705,22.609555258890805
706,23.97520660498436
1681,254.52460000000003
1723,76.56825000000002
1729,67.53999999999999
1735,70.79434999999998
1741,80.0
1931,19975.92875249994
2034,2625.803119999999
2,1, 6,15, 0,17, 0.00,60.00,Monday
702,21.78094998646963
703,22.230110602001678
704,21.950400657766378
705,22.423440295697028
706,23.99792015686839
1681,254.52460000000003
1723,76.56825000000002
1729,67.53999999999999
1735,70.79434999999998
1741,80.0
1931,19513.792168907275
2034,2625.803119999999
2,1, 6,15, 0,18, 0.00,60.00,Monday
702,21.12194201384754
703,21.57426942064221
704,21.30142793571941
705,21.708491948290779
706,23.98115632055814
1681,178.16722000000005
1723,76.56825000000002
1729,67.53999999999999
1735,70.79434999999998
1741,80.0
1931,15255.451414786536
2034,2625.803119999999
2,1, 6,15, 0,19, 0.00,60.00,Monday
702,20.799024098941783
703,21.154366819404325
704,20.867799898264275
705,21.107877487395827
706,23.033809071371218
1681,0.0
1723,57.42618750000001
1729,6.7540000000000008
1735,70.79434999999998
1741,80.0
1931,12614.433354489029
2034,2625.803119999999
2,1, 6,15, 0,20, 0.00,60.00,Monday
702,20.64170340953223
703,20.875226080825663
704,20.661205708172646
705,20.836959930745996
706,21.528941046627453
1681,0.0
1723,0.0
1729,0.0
1735,17.6985875
1741,80.0
1931,9926.507915430984
2034,2625.803119999999
2,1, 6,15, 0,21, 0.00,60.00,Monday
702,20.5083242387412
703,20.587194214685817
704,20.432662933906469
705,20.618652668681198
706,20.800334718265807
1681,0.0
1723,0.0
1729,0.0
1735,0.0
1741,4.0
1931,6787.251871881301
2034,2625.803119999999
2,1, 6,15, 0,22, 0.00,60.00,Monday
702,20.447335424765304
703,20.401378952284487
704,20.250489730713224
705,20.441179956748216
706,20.535218650544907
1681,0.0
1723,0.0
1729,0.0
1735,0.0
1741,0.0
1931,5173.719949865861
2034,2625.803119999999
2,1, 6,15, 0,23, 0.00,60.00,Monday
702,21.223677264865274
703,20.933506946099219
704,20.835558456684404
705,20.94031842542917
706,20.97673339910078
1681,203.61968000000008
1723,38.28412500000001
1729,0.0
1735,35.397175
1741,40.0
1931,8811.604783964169
2034,2100.6424959999997
2,1, 6,15, 0,24, 0.00,60.00,Monday
702,21.19815124033385
703,20.89658301756497
704,20.906083019483935
705,20.88653429845158
706,20.905190941541428
1681,254.52460000000003
1723,0.0
1729,0.0
1735,0.0
1741,0.0
1931,6710.298090116621
2034,2625.803119999999
2,2, 6,16, 0, 1, 0.00,60.00,Tuesday
702,21.025655101921385
703,20.745954342658764
704,20.73608573815327
705,20.72713229774002
706,20.767414902650608
1681,0.0
1723,0.0
1729,0.0
1735,0.0
1741,0.0
1931,0.0
2034,0.0
2,2, 6,16, 0, 2, 0.00,60.00,Tuesday
702,20.96634329885954
703,20.644377125618829
704,20.613430641513128
705,20.624517767830633
706,20.65826965524559
1681,76.35738
1723,0.0
1729,0.0
1735,0.0
1741,0.0
1931,3799.386623210332
2034,787.740936
2,2, 6,16, 0, 3, 0.00,60.00,Tuesday
702,20.96335217332821
703,20.614663768788384
704,20.56658832503795
705,20.591428204861417
706,20.605903907539678
1681,0.0
1723,0.0
1729,0.0
1735,0.0
1741,0.0
1931,0.0
2034,0.0
2,2, 6,16, 0, 4, 0.00,60.00,Tuesday
702,20.990376629406819
703,20.525397437757687
704,20.465644070036978
705,20.495008243458245
706,20.492721013043288
1681,0.0
1723,0.0
1729,0.0
1735,0.0
1741,0.0
1931,0.0
2034,0.0
2,2, 6,16, 0, 5, 0.00,60.00,Tuesday
702,21.00461964584587
703,20.405703352553915
704,20.331655732491833
705,20.370464923940657
706,20.3578305625048
1681,0.0
1723,0.0
1729,0.0
1735,0.0
1741,0.0
1931,0.0
2034,0.0
2,2, 6,16, 0, 6, 0.00,60.00,Tuesday
702,20.946244773945148
703,20.45298692475611
704,20.379156438232618
705,20.42109406800947
706,20.39335323454188
1681,50.90492
1723,0.0
1729,0.0
1735,0.0
1741,0.0
1931,2455.6831176753087
2034,525.160624
2,2, 6,16, 0, 7, 0.00,60.00,Tuesday
702,20.26427779144277
703,20.206060596413953
704,20.14496338892003
705,20.19675838160442
706,20.029674855621303
1681,0.0
1723,0.0
1729,0.0
1735,0.0
1741,0.0
1931,2491.861841071027
2034,2625.803119999999
2,2, 6,16, 0, 8, 0.00,60.00,Tuesday
702,20.199589419566608
703,20.358598496834824
704,20.336339731497394
705,20.363190828370735
706,20.14534320006198
1681,0.0
1723,0.0
1729,0.0
1735,0.0
1741,0.0
1931,3468.8692828486675
2034,2625.803119999999
2,2, 6,16, 0, 9, 0.00,60.00,Tuesday
702,21.155241488101447
703,21.259110330764338
704,21.323892515356499
705,21.29166564001693
706,20.983042045489737
1681,165.44099000000004
1723,61.25460000000002
1729,50.65499999999999
1735,53.0957625
1741,48.0
1931,10653.92712849052
2034,2625.803119999999
2,2, 6,16, 0,10, 0.00,60.00,Tuesday
702,21.489026497646547
703,21.58728316285346
704,22.38459025116549
705,21.65464154705709
706,21.193783249346095
1681,254.52460000000003
1723,76.56825000000002
1729,67.53999999999999
1735,70.79434999999998
1741,80.0
1931,13875.057258572575
2034,2625.803119999999
2,2, 6,16, 0,11, 0.00,60.00,Tuesday
702,21.60448833461613
703,21.78801961601887
704,22.19180512143499
705,21.84943806705636
706,21.36205586609892
1681,254.52460000000003
1723,76.56825000000002
1729,67.53999999999999
1735,70.79434999999998
1741,80.0
1931,14627.607110163623
2034,2625.803119999999
2,2, 6,16, 0,12, 0.00,60.00,Tuesday
702,21.64713966978711
703,21.939486061199788
704,22.125647046762429
705,22.110552501609499
706,21.50635606144156
1681,254.52460000000003
1723,76.56825000000002
1729,67.53999999999999
1735,70.79434999999998
1741,80.0
1931,16507.085283449505
2034,2625.803119999999
2,2, 6,16, 0,13, 0.00,60.00,Tuesday
702,21.36454785580937
703,21.8455337177546
704,21.870298246498277
705,22.133301935994984
706,21.466511261545198
1681,254.52460000000003
1723,76.56825000000002
1729,67.53999999999999
1735,70.79434999999998
1741,80.0
1931,17729.28221820763
2034,2625.803119999999
2,2, 6,16, 0,14, 0.00,60.00,Tuesday
702,21.5767899546532
703,22.11182819856147
704,22.021091681745526
705,22.43800274254898
706,21.854087762554746
1681,254.52460000000003
1723,76.56825000000002
1729,67.53999999999999
1735,70.79434999999998
1741,80.0
1931,20475.91473485808
2034,2625.803119999999
2,2, 6,16, 0,15, 0.00,60.00,Tuesday
702,21.67317137546825
703,22.23024253584146
704,22.060849185268347
705,22.584788287064805
706,22.967181118974815
1681,254.52460000000003
1723,76.56825000000002
1729,67.53999999999999
1735,70.79434999999998
1741,80.0
1931,21868.001681168615
2034,2625.803119999999
2,2, 6,16, 0,16, 0.00,60.00,Tuesday
702,21.674436796496616
703,22.23579778112159
704,22.00470641408213
705,22.589692940040714
706,23.8454454116281
1681,254.52460000000003
1723,76.56825000000002
1729,67.53999999999999
1735,70.79434999999998
1741,80.0
1931,23461.893093947867
2034,2625.803119999999
2,2, 6,16, 0,17, 0.00,60.00,Tuesday
702,21.645870745230139
703,22.223435735267338
704,21.903493272263554
705,22.445825074085179
706,23.998092449551558
1681,254.52460000000003
1723,76.56825000000002
1729,67.53999999999999
1735,70.79434999999998
1741,80.0
1931,23766.001471719672
2034,2625.803119999999
2,2, 6,16, 0,18, 0.00,60.00,Tuesday
702,21.03783996302284
703,21.601969582734914
704,21.278457275845648
705,21.76332907140048
706,23.892332098143265
1681,101.80984
1723,76.56825000000002
1729,67.53999999999999
1735,70.79434999999998
1741,80.0
1931,17023.416320799657
2034,2625.803119999999
2,2, 6,16, 0,19, 0.00,60.00,Tuesday
702,20.759247684822545
703,21.180543519403554
704,20.845347500335927
705,21.16684650635051
706,22.817606475538804
1681,0.0
1723,65.08301250000003
1729,8.4425
1735,70.79434999999998
1741,80.0
1931,12862.499446984253
2034,2625.803119999999
2,2, 6,16, 0,20, 0.00,60.00,Tuesday
702,20.60387488498105
703,20.878585628224476
704,20.6226575250629
705,20.86298843499382
706,21.429302114273196
1681,0.0
1723,0.0
1729,0.0
1735,14.158869999999999
1741,76.0
1931,11212.810878247958
2034,2625.803119999999
2,2, 6,16, 0,21, 0.00,60.00,Tuesday
702,20.478831337009244
703,20.611489910398498
704,20.403693912086714
705,20.6597481740233
706,20.788135950345628
1681,0.0
1723,0.0
1729,0.0
1735,0.0
1741,0.0
1931,8314.354865769681
2034,2625.803119999999
2,2, 6,16, 0,22, 0.00,60.00,Tuesday
702,20.398736804282515
703,20.435674811072496
704,20.231420072923038
705,20.494329460038388
706,20.53912592855271
1681,0.0
1723,0.0
1729,0.0
1735,0.0
1741,0.0
1931,7145.7792500146219
2034,2625.803119999999
2,2, 6,16, 0,23, 0.00,60.00,Tuesday
702,21.232024866842268
703,21.0875493480147
704,20.907866482688836
705,21.106614565559729
706,21.09213594616137
1681,203.61968000000008
1723,57.42618750000001
1729,30.393
1735,53.0957625
1741,70.0
1931,10217.441699521656
2034,2297.5777299999997
2,2, 6,16, 0,24, 0.00,60.00,Tuesday
702,21.234113059670233
703,21.02788778179613
704,20.904046759771405
705,21.028777594024907
706,20.963658117728067
1681,254.52460000000003
1723,49.769362500000017
1729,0.0
1735,42.47661
1741,12.0
1931,9110.83086627817
2034,2625.803119999999
2,3, 6,17, 0, 1, 0.00,60.00,Wednesday
702,20.994351777098083
703,20.858994444807924
704,20.763665437929576
705,20.84373100818822
706,20.883245771713797
1681,89.08361
1723,0.0
1729,0.0
1735,0.0
1741,0.0
1931,2144.7075639030315
2034,919.031092
2,3, 6,17, 0, 2, 0.00,60.00,Wednesday
702,20.992167038930729
703,20.821965119962134
704,20.69149981126082
705,20.800363909606405
706,20.832721383201894
1681,89.08361
1723,0.0
1729,0.0
1735,0.0
1741,0.0
1931,2280.343119386609
2034,919.031092
2,3, 6,17, 0, 3, 0.00,60.00,Wednesday
702,20.98876406950226
703,20.787779660003414
704,20.642612546990259
705,20.769646790797386
706,20.777059057399148
1681,63.631150000000008
1723,0.0
1729,0.0
1735,0.0
1741,0.0
1931,1686.0834419438998
2034,656.45078
2,3, 6,17, 0, 4, 0.00,60.00,Wednesday
702,20.990679723993357
703,20.738935565573116
704,20.58481926529464
705,20.711002318367858
706,20.696523106828985
1681,38.17869
1723,0.0
1729,0.0
1735,0.0
1741,0.0
1931,876.0916013988505
2034,393.87046799999998
2,3, 6,17, 0, 5, 0.00,60.00,Wednesday
702,20.977633063680366
703,20.697126553613143
704,20.599772241148896
705,20.63855067948877
706,20.61072320002743
1681,0.0
1723,0.0
1729,0.0
1735,0.0
1741,0.0
1931,0.0
2034,0.0
2,3, 6,17, 0, 6, 0.00,60.00,Wednesday
702,20.998700133716377
703,20.87726325165139
704,21.365478171915844
705,20.729888222157596
706,20.691994066527515
1681,114.53607
1723,0.0
1729,54.032
1735,0.0
1741,0.0
1931,4944.842494066869
2034,2363.2228079999997
2,3, 6,17, 0, 7, 0.00,60.00,Wednesday
702,20.259937401704847
703,20.4829070190164
704,22.131642198049624
705,20.40375701595046
706,20.18836443818168
1681,4.242076666666667
1723,0.0
1729,67.53999999999999
1735,0.0
1741,0.0
1931,8503.38319736072
2034,2625.803119999999
2,3, 6,17, 0, 8, 0.00,60.00,Wednesday
702,20.217309336218969
703,20.712665573153115
704,22.81141980400612
705,20.598357952607655
706,20.29275113824472
1681,0.0
1723,0.0
1729,67.53999999999999
1735,0.0
1741,0.0
1931,11328.448383600242
2034,2625.803119999999
2,3, 6,17, 0, 9, 0.00,60.00,Wednesday
702,21.187540706348576
703,21.579982921380098
704,23.678719975335988
705,21.585169453679645
706,21.1503983228177
1681,165.44099000000004
1723,72.73983750000002
1729,67.53999999999999
1735,67.25463249999999
1741,56.0
1931,16238.822173663668
2034,2625.803119999999
2,3, 6,17, 0,10, 0.00,60.00,Wednesday
702,21.533122026866328
703,21.93463025856898
704,23.719946314333308
705,21.986403444381389
706,21.42777986583333
1681,254.52460000000003
1723,76.56825000000002
1729,67.53999999999999
1735,70.79434999999998
1741,80.0
1931,19962.061977413046
2034,2625.803119999999
2,3, 6,17, 0,11, 0.00,60.00,Wednesday
702,21.56859432180781
703,22.167667391106329
704,23.06316244438965
705,22.249670159370127
706,21.656387492977968
1681,254.52460000000003
1723,76.56825000000002
1729,67.53999999999999
1735,70.79434999999998
1741,80.0
1931,22123.898005883522
2034,2625.803119999999
2,3, 6,17, 0,12, 0.00,60.00,Wednesday
702,21.623204237092318
703,22.32094192091884
704,22.793081333671247
705,22.509199481736503
706,21.82255558302369
1681,254.52460000000003
1723,76.56825000000002
1729,67.53999999999999
1735,70.79434999999998
1741,80.0
1931,23160.73752128859
2034,2625.803119999999
2,3, 6,17, 0,13, 0.00,60.00,Wednesday
702,21.42801068949208
703,22.204321804727554
704,22.43371371139501
705,22.516381785388739
706,21.757871073816014
1681,254.52460000000003
1723,76.56825000000002
1729,67.53999999999999
1735,70.79434999999998
1741,80.0
1931,22550.829665576057
2034,2625.803119999999
2,3, 6,17, 0,14, 0.00,60.00,Wednesday
702,21.636389929324005
703,22.40634371368381
704,22.459016956282175
705,22.72248777245729
706,22.080638375228469
1681,254.52460000000003
1723,76.56825000000002
1729,67.53999999999999
1735,70.79434999999998
1741,80.0
1931,23139.366182943497
2034,2625.803119999999
2,3, 6,17, 0,15, 0.00,60.00,Wednesday
702,21.75007183492144
703,22.469997193837629
704,22.400961286376345
705,22.79867604459652
706,23.23819163135587
1681,254.52460000000003
1723,76.56825000000002
1729,67.53999999999999
1735,70.79434999999998
1741,80.0
1931,23174.673358149586
2034,2625.803119999999
2,3, 6,17, 0,16, 0.00,60.00,Wednesday
702,21.771074817872198
703,22.45039922573053
704,22.28206779095763
705,22.783282745627138
706,23.99333689266957
1681,254.52460000000003
1723,76.56825000000002
1729,67.53999999999999
1735,70.79434999999998
1741,80.0
1931,23037.297091297245
2034,2625.803119999999
2,3, 6,17, 0,17, 0.00,60.00,Wednesday
702,21.755254584294798
703,22.391096908133414
704,22.107149559066195
705,22.590071599828968
706,23.998005240029469
1681,254.52460000000003
1723,76.56825000000002
1729,67.53999999999999
1735,70.79434999999998
1741,80.0
1931,22892.120350366597
2034,2625.803119999999
2,3, 6,17, 0,18, 0.00,60.00,Wednesday
702,21.114939849095597
703,21.73497158293164
704,21.46445990545086
705,21.882857651737504
706,23.99902524412969
1681,178.16722000000005
1723,76.56825000000002
1729,67.53999999999999
1735,70.79434999999998
1741,80.0
1931,17595.372056545366
2034,2625.803119999999
2,3, 6,17, 0,19, 0.00,60.00,Wednesday
702,20.82331848447672
703,21.339625139502297
704,20.992189969209855
705,21.28924207166117
706,23.285237115115274
1681,6.363115
1723,76.56825000000002
1729,27.016000000000003
1735,70.79434999999998
1741,80.0
1931,12998.399445651834
2034,2625.803119999999
2,3, 6,17, 0,20, 0.00,60.00,Wednesday
702,20.68906352464923
703,21.01463938086879
704,20.780567929666839
705,20.922486259024848
706,21.713170616021267
1681,0.0
1723,15.31365
1729,0.0
1735,38.9368925
1741,80.0
1931,11325.921586748771
2034,2625.803119999999
2,3, 6,17, 0,21, 0.00,60.00,Wednesday
702,20.57417731865906
703,20.69606207487078
704,20.55167104892463
705,20.71794127233342
706,20.89443191298258
1681,0.0
1723,0.0
1729,0.0
1735,0.0
1741,20.0
1931,8363.496403463125
2034,2625.803119999999
2,3, 6,17, 0,22, 0.00,60.00,Wednesday
702,20.490055704568094
703,20.498477026929277
704,20.355834044285748
705,20.539090436356429
706,20.622122696139348
1681,0.0
1723,0.0
1729,0.0
1735,0.0
1741,0.0
1931,7432.297280611752
2034,2625.803119999999
2,3, 6,17, 0,23, 0.00,60.00,Wednesday
702,21.291122062885664
703,21.023046666076959
704,20.906493816690099
705,21.028545870591257
706,21.056447763183305
1681,203.61968000000008
1723,57.42618750000001
1729,20.262000000000005
1735,53.0957625
1741,62.0
1931,10011.403617480495
2034,2297.5777299999997
2,3, 6,17, 0,24, 0.00,60.00,Wednesday
702,21.263076405243589
703,20.94975144944343
704,20.83807891939785
705,20.94143756992716
706,20.951999377562623
1681,254.52460000000003
1723,7.656825
1729,0.0
1735,7.079434999999999
1741,0.0
1931,7588.038583635665
2034,2625.803119999999
End of Data
 Number of Records Written=         864
