Program Version,EnergyPlus, Version 9.3.0-baff08990c, YMD=2021.12.16 01:49
1,5,Environment Title[],Latitude[deg],Longitude[deg],Time Zone[],Elevation[m]
2,8,Day of Simulation[],Month[],Day of Month[],DST Indicator[1=yes 0=no],Hour[],StartMinute[],EndMinute[],DayType
3,5,Cumulative Day of Simulation[],Month[],Day of Month[],DST Indicator[1=yes 0=no],DayType  ! When Daily Report Variables Requested
4,2,Cumulative Days of Simulation[],Month[]  ! When Monthly Report Variables Requested
5,1,Cumulative Days of Simulation[] ! When Run Period Report Variables Requested
6,1,Calendar Year of Simulation[] ! When Annual Report Variables Requested
7,1,Environment,Site Outdoor Air Drybulb Temperature [C] !Hourly
47,1,CORE_TOP,Zone Total Internal Total Heating Rate [W] !Hourly
704,1,CORE_TOP,Zone Mean Air Temperature [C] !Hourly
705,1,PERIMETER_TOP_ZN_3,Zone Mean Air Temperature [C] !Hourly
706,1,PERIMETER_TOP_ZN_2,Zone Mean Air Temperature [C] !Hourly
707,1,PERIMETER_TOP_ZN_1,Zone Mean Air Temperature [C] !Hourly
708,1,PERIMETER_TOP_ZN_4,Zone Mean Air Temperature [C] !Hourly
1683,1,CORE_TOP_LOTEMP,Zone Radiant HVAC Pump Electric Power [W] !Hourly
1725,1,PERI1_TOP_LOTEMP,Zone Radiant HVAC Pump Electric Power [W] !Hourly
1731,1,PERI2_TOP_LOTEMP,Zone Radiant HVAC Pump Electric Power [W] !Hourly
1737,1,PERI3_TOP_LOTEMP,Zone Radiant HVAC Pump Electric Power [W] !Hourly
1743,1,PERI4_TOP_LOTEMP,Zone Radiant HVAC Pump Electric Power [W] !Hourly
2009,1,HP_RADSYS,Heat Pump Electric Power [W] !Hourly
2037,1,HOT WATER LOOP HW SUPPLY PUMP2,Pump Electric Power [W] !Hourly
End of Data Dictionary
1,RUNPERIOD 1,  40.78, -73.97,  -5.00,  40.00
2,1, 6,15, 0, 1, 0.00,60.00,Monday
7,16.9375
47,2780.82959564914
704,20.875447088883207
705,20.68464889147045
706,20.716691600466498
707,20.7127019973008
708,20.80373657520721
1683,0.0
1725,0.0
1731,0.0
1737,0.0
1743,0.0
2009,0.0
2037,0.0
2,1, 6,15, 0, 2, 0.00,60.00,Monday
7,16.699999999999997
47,2780.82959564914
704,20.83371719304024
705,20.613035198223913
706,20.642682336447174
707,20.641239001993744
708,20.729820664377664
1683,0.0
1725,0.0
1731,0.0
1737,0.0
1743,0.0
2009,0.0
2037,0.0
2,1, 6,15, 0, 3, 0.00,60.00,Monday
7,16.699999999999997
47,2780.82959564914
704,20.837577786432
705,20.579753893344625
706,20.603399012125999
707,20.604189568127724
708,20.679977335539016
1683,0.0
1725,0.0
1731,0.0
1737,0.0
1743,0.0
2009,0.0
2037,0.0
2,1, 6,15, 0, 4, 0.00,60.00,Monday
7,16.385000000000006
47,2780.82959564914
704,20.84107156067275
705,20.536282507711677
706,20.555871463038924
707,20.561813962541348
708,20.620296932988727
1683,0.0
1725,0.0
1731,0.0
1737,0.0
1743,0.0
2009,0.0
2037,0.0
2,1, 6,15, 0, 5, 0.00,60.00,Monday
7,16.1
47,2780.82959564914
704,20.83434542343936
705,20.49063965533013
706,20.526608771199887
707,20.50348689203498
708,20.549998199580494
1683,0.0
1725,0.0
1731,0.0
1737,0.0
1743,0.0
2009,0.0
2037,0.0
2,1, 6,15, 0, 6, 0.00,60.00,Monday
7,16.677500000000003
47,3119.6039812842798
704,20.859214251784935
705,20.629442482594749
706,21.0331809114582
707,20.575374029866745
708,20.613358367423467
1683,0.0
1725,0.0
1731,30.393
1737,0.0
1743,0.0
2009,0.0
2037,0.0
2,1, 6,15, 0, 7, 0.00,60.00,Monday
7,17.514999999999998
47,4245.451607531919
704,20.169195839599607
705,20.27493792859426
706,21.322570005562267
707,20.26373344375284
708,20.145122239335433
1683,0.0
1725,0.0
1731,67.53999999999999
1737,0.0
1743,0.0
2009,0.0
2037,0.0
2,1, 6,15, 0, 8, 0.00,60.00,Monday
7,18.062500000000005
47,6049.250893545528
704,20.100224845078257
705,20.458012413018307
706,22.436822855547047
707,20.430660470183388
708,20.236005972573027
1683,0.0
1725,0.0
1731,67.53999999999999
1737,0.0
1743,0.0
2009,0.0
2037,0.0
2,1, 6,15, 0, 9, 0.00,60.00,Monday
7,19.192500000000004
47,18101.736647504957
704,21.10767701048081
705,21.353960575331649
706,23.73961310790603
707,21.416122249381084
708,21.092244077378039
1683,152.71476
1725,68.91142500000002
1731,67.53999999999999
1737,63.71491499999998
1743,52.0
2009,0.0
2037,0.0
2,1, 6,15, 0,10, 0.00,60.00,Monday
7,20.5775
47,18101.736647504957
704,21.532920425652529
705,21.758575238450086
706,23.779889509067205
707,21.833879728995698
708,21.44256598904764
1683,254.52460000000003
1725,76.56825000000002
1731,67.53999999999999
1737,70.79434999999998
1743,80.0
2009,0.0
2037,0.0
2,1, 6,15, 0,11, 0.00,60.00,Monday
7,21.415
47,18265.019990212222
704,21.647658327640749
705,21.951808183297666
706,22.964999310758136
707,21.986557845595859
708,21.632551087852528
1683,254.52460000000003
1725,76.56825000000002
1731,67.53999999999999
1737,70.79434999999998
1743,80.0
2009,0.0
2037,0.0
2,1, 6,15, 0,12, 0.00,60.00,Monday
7,21.9625
47,18101.73664750495
704,21.70229459015264
705,22.068314870539877
706,22.672110878289204
707,22.17031788501871
708,21.756573808300517
1683,254.52460000000003
1725,76.56825000000002
1731,67.53999999999999
1737,70.79434999999998
1743,80.0
2009,0.0
2037,0.0
2,1, 6,15, 0,13, 0.00,60.00,Monday
7,22.7775
47,14572.507325244462
704,21.450974269589826
705,21.913641348329404
706,22.28941596261489
707,22.090619421266966
708,21.637421606162577
1683,254.52460000000003
1725,76.56825000000002
1731,67.53999999999999
1737,70.79434999999998
1743,80.0
2009,0.0
2037,0.0
2,1, 6,15, 0,14, 0.00,60.00,Monday
7,24.192500000000004
47,18101.736647504957
704,21.642343504598366
705,22.15066954197417
706,22.357714809290508
707,22.403723369791167
708,21.94979490510283
1683,254.52460000000003
1725,76.56825000000002
1731,67.53999999999999
1737,70.79434999999998
1743,80.0
2009,0.0
2037,0.0
2,1, 6,15, 0,15, 0.00,60.00,Monday
7,24.684999999999996
47,18265.019990212222
704,21.737546665941559
705,22.273893424029759
706,22.3708693608819
707,22.60795227835589
708,23.216757947130576
1683,254.52460000000003
1725,76.56825000000002
1731,67.53999999999999
1737,70.79434999999998
1743,80.0
2009,0.0
2037,0.0
2,1, 6,15, 0,16, 0.00,60.00,Monday
7,24.1375
47,18101.736647504957
704,21.779937134606173
705,22.283268115683094
706,22.28624528529095
707,22.629576006255929
708,23.994527722628147
1683,254.52460000000003
1725,76.56825000000002
1731,67.53999999999999
1737,70.79434999999998
1743,80.0
2009,0.0
2037,0.0
2,1, 6,15, 0,17, 0.00,60.00,Monday
7,23.585
47,18101.736647504957
704,21.775759013913363
705,22.237708806154598
706,22.12315841791019
707,22.44800208041167
708,23.998158093711447
1683,254.52460000000003
1725,76.56825000000002
1731,67.53999999999999
1737,70.79434999999998
1743,80.0
2009,0.0
2037,0.0
2,1, 6,15, 0,18, 0.00,60.00,Monday
7,22.46
47,8609.530172617446
704,21.10436211644464
705,21.573060697862205
706,21.422642338230426
707,21.734910332137824
708,23.99881921442898
1683,152.71476
1725,76.56825000000002
1731,67.53999999999999
1737,70.79434999999998
1743,80.0
2009,0.0
2037,0.0
2,1, 6,15, 0,19, 0.00,60.00,Monday
7,21.385
47,5413.9869089617409
704,20.674623357160728
705,21.12300011894302
706,20.89319279314122
707,21.115606932839094
708,23.34978276154174
1683,0.0
1725,57.42618750000001
1731,13.508000000000001
1737,70.79434999999998
1743,80.0
2009,0.0
2037,0.0
2,1, 6,15, 0,20, 0.00,60.00,Monday
7,20.8375
47,5413.9869089617409
704,20.45061903987173
705,20.812419651528914
706,20.65639757768342
707,20.760002693801647
708,21.78152318711572
1683,0.0
1725,0.0
1731,0.0
1737,10.619152499999999
1743,80.0
2009,0.0
2037,0.0
2,1, 6,15, 0,21, 0.00,60.00,Monday
7,19.969999999999997
47,4829.719258246828
704,20.250701368978107
705,20.457227208906347
706,20.41038229646818
707,20.49629432316706
708,20.849065264663805
1683,0.0
1725,0.0
1731,0.0
1737,0.0
1743,16.0
2009,0.0
2037,0.0
2,1, 6,15, 0,22, 0.00,60.00,Monday
7,18.822499999999999
47,4829.719258246828
704,20.144074322345597
705,20.235684470550319
706,20.21330887149531
707,20.297229276338823
708,20.538244424226247
1683,0.0
1725,0.0
1731,0.0
1737,0.0
1743,0.0
2009,0.0
2037,0.0
2,1, 6,15, 0,23, 0.00,60.00,Monday
7,18.300000000000006
47,3927.819615240021
704,20.94743331619984
705,20.74759607217772
706,20.779295592517906
707,20.787521229836785
708,21.055731606396859
1683,139.98853000000003
1725,0.0
1731,0.0
1737,0.0
1743,60.0
2009,0.0
2037,0.0
2,1, 6,15, 0,24, 0.00,60.00,Monday
7,17.722500000000005
47,3635.6857898825685
704,21.070387982731256
705,20.816562373548775
706,20.849280382681454
707,20.85019713908404
708,20.958004081630393
1683,254.52460000000003
1725,0.0
1731,0.0
1737,0.0
1743,20.0
2009,0.0
2037,0.0
2,2, 6,16, 0, 1, 0.00,60.00,Tuesday
7,16.9375
47,2780.82959564914
704,20.870635047557003
705,20.656048559031139
706,20.68775591410516
707,20.68636528651358
708,20.776669619199084
1683,12.72623
1725,0.0
1731,0.0
1737,0.0
1743,0.0
2009,0.0
2037,0.0
2,2, 6,16, 0, 2, 0.00,60.00,Tuesday
7,16.9625
47,2780.82959564914
704,20.80830436262924
705,20.53430875005103
706,20.56325073573756
707,20.5647541734567
708,20.65518422775278
1683,0.0
1725,0.0
1731,0.0
1737,0.0
1743,0.0
2009,0.0
2037,0.0
2,2, 6,16, 0, 3, 0.00,60.00,Tuesday
7,16.9375
47,2780.82959564914
704,20.781455300686184
705,20.49014086486708
706,20.513631634345154
707,20.517159854620805
708,20.59484527360572
1683,0.0
1725,0.0
1731,0.0
1737,0.0
1743,0.0
2009,0.0
2037,0.0
2,2, 6,16, 0, 4, 0.00,60.00,Tuesday
7,16.385000000000006
47,2780.82959564914
704,20.753735055079944
705,20.3875650434974
706,20.405304373631809
707,20.40600151478477
708,20.470346194255403
1683,0.0
1725,0.0
1731,0.0
1737,0.0
1743,0.0
2009,0.0
2037,0.0
2,2, 6,16, 0, 5, 0.00,60.00,Tuesday
7,15.8375
47,2780.82959564914
704,20.731079694644447
705,20.251155323508848
706,20.263606067955437
707,20.266585734881394
708,20.323138429641415
1683,0.0
1725,0.0
1731,0.0
1737,0.0
1743,0.0
2009,0.0
2037,0.0
2,2, 6,16, 0, 6, 0.00,60.00,Tuesday
7,15.6
47,3119.6039812842798
704,20.754075466760658
705,20.28651392687047
706,20.30522890923931
707,20.3058494492114
708,20.349969265288885
1683,0.0
1725,0.0
1731,0.0
1737,0.0
1743,0.0
2009,0.0
2037,0.0
2,2, 6,16, 0, 7, 0.00,60.00,Tuesday
7,15.8625
47,4245.451607531921
704,20.114552084167195
705,20.047006947896205
706,20.080173865578936
707,20.08625339533314
708,19.99265658558605
1683,0.0
1725,0.0
1731,0.0
1737,0.0
1743,0.0
2009,0.0
2037,0.0
2,2, 6,16, 0, 8, 0.00,60.00,Tuesday
7,16.415
47,6049.250893545528
704,20.02228390988713
705,20.191658081290649
706,20.271504798010534
707,20.245586577154105
708,20.10683196491347
1683,0.0
1725,0.0
1731,0.0
1737,0.0
1743,0.0
2009,0.0
2037,0.0
2,2, 6,16, 0, 9, 0.00,60.00,Tuesday
7,17.277499999999998
47,18101.736647504953
704,20.988856921196424
705,21.13159009457565
706,21.31615278865091
707,21.22060348865446
708,20.987025754994915
1683,139.98853000000003
1725,53.59777500000001
1731,47.27799999999999
1737,46.0163275
1743,44.0
2009,0.0
2037,0.0
2,2, 6,16, 0,10, 0.00,60.00,Tuesday
7,18.377500000000006
47,18101.736647504957
704,21.40081331514649
705,21.536594983493875
706,22.462846021226747
707,21.64166844576736
708,21.30916209784652
1683,254.52460000000003
1725,76.56825000000002
1731,67.53999999999999
1737,70.79434999999998
1743,80.0
2009,0.0
2037,0.0
2,2, 6,16, 0,11, 0.00,60.00,Tuesday
7,19.4775
47,18265.019990212222
704,21.549143234401347
705,21.75721838739572
706,22.292004094152234
707,21.846530070284595
708,21.499273485182365
1683,254.52460000000003
1725,76.56825000000002
1731,67.53999999999999
1737,70.79434999999998
1743,80.0
2009,0.0
2037,0.0
2,2, 6,16, 0,12, 0.00,60.00,Tuesday
7,21.154999999999999
47,18101.736647504957
704,21.61154308726811
705,21.920946070922854
706,22.239180393738484
707,22.112859636693888
708,21.652412780013337
1683,254.52460000000003
1725,76.56825000000002
1731,67.53999999999999
1737,70.79434999999998
1743,80.0
2009,0.0
2037,0.0
2,2, 6,16, 0,13, 0.00,60.00,Tuesday
7,23.092499999999999
47,14572.507325244462
704,21.331182858074187
705,21.833405793116947
706,21.993740688967269
707,22.139560206080519
708,21.615854474037858
1683,254.52460000000003
1725,76.56825000000002
1731,67.53999999999999
1737,70.79434999999998
1743,80.0
2009,0.0
2037,0.0
2,2, 6,16, 0,14, 0.00,60.00,Tuesday
7,24.4775
47,18101.73664750495
704,21.54753303103122
705,22.10583811808666
706,22.147833948518519
707,22.448896853219499
708,21.985118217739847
1683,254.52460000000003
1725,76.56825000000002
1731,67.53999999999999
1737,70.79434999999998
1743,80.0
2009,0.0
2037,0.0
2,2, 6,16, 0,15, 0.00,60.00,Tuesday
7,25.0
47,18265.019990212222
704,21.6500166533879
705,22.228852433947688
706,22.1928770672293
707,22.600511485615983
708,23.093350252170415
1683,254.52460000000003
1725,76.56825000000002
1731,67.53999999999999
1737,70.79434999999998
1743,80.0
2009,0.0
2037,0.0
2,2, 6,16, 0,16, 0.00,60.00,Tuesday
7,25.5775
47,18101.736647504957
704,21.65651485943567
705,22.238604106062444
706,22.14295571251278
707,22.610553276466385
708,23.937301807899908
1683,254.52460000000003
1725,76.56825000000002
1731,67.53999999999999
1737,70.79434999999998
1743,80.0
2009,0.0
2037,0.0
2,2, 6,16, 0,17, 0.00,60.00,Tuesday
7,25.8375
47,18101.736647504957
704,21.63251406623646
705,22.229788568175957
706,22.04599043427768
707,22.470927656096316
708,23.998045202898799
1683,254.52460000000003
1725,76.56825000000002
1731,67.53999999999999
1737,70.79434999999998
1743,80.0
2009,0.0
2037,0.0
2,2, 6,16, 0,18, 0.00,60.00,Tuesday
7,24.7075
47,8609.530172617446
704,20.9926795936462
705,21.600619240093267
706,21.39220816697655
707,21.789952223055776
708,23.988463148551014
1683,89.08361
1725,76.56825000000002
1731,67.53999999999999
1737,70.79434999999998
1743,80.0
2009,0.0
2037,0.0
2,2, 6,16, 0,19, 0.00,60.00,Tuesday
7,23.322499999999999
47,5413.9869089617409
704,20.602532155437218
705,21.149571883152107
706,20.86956345436449
707,21.175468405227467
708,23.162009659648086
1683,0.0
1725,65.08301250000003
1731,13.508000000000001
1737,70.79434999999998
1743,80.0
2009,0.0
2037,0.0
2,2, 6,16, 0,20, 0.00,60.00,Tuesday
7,22.2225
47,5413.98690896174
704,20.385262567949668
705,20.810516162351524
706,20.607740312785006
707,20.78897904660267
708,21.65981317579912
1683,0.0
1725,0.0
1731,0.0
1737,7.079434999999999
1743,80.0
2009,0.0
2037,0.0
2,2, 6,16, 0,21, 0.00,60.00,Tuesday
7,21.385
47,4829.719258246828
704,20.1937921790357
705,20.474988211265204
706,20.36880924586323
707,20.53434577176811
708,20.81499457031972
1683,0.0
1725,0.0
1731,0.0
1737,0.0
1743,12.0
2009,0.0
2037,0.0
2,2, 6,16, 0,22, 0.00,60.00,Tuesday
7,20.8375
47,4829.719258246828
704,20.07495326541929
705,20.264423490746468
706,20.18084926959285
707,20.346763233913003
708,20.532348237940345
1683,0.0
1725,0.0
1731,0.0
1737,0.0
1743,0.0
2009,0.0
2037,0.0
2,2, 6,16, 0,23, 0.00,60.00,Tuesday
7,20.600000000000006
47,3927.819615240021
704,20.939982129410759
705,20.91125630207759
706,20.88406590402628
707,20.960048969881137
708,21.1855261191999
1683,139.98853000000003
1725,45.940950000000018
1731,30.393
1737,35.397175
1743,68.0
2009,0.0
2037,0.0
2,2, 6,16, 0,24, 0.00,60.00,Tuesday
7,20.285000000000005
47,3635.6857898825685
704,21.099398128037604
705,20.962345336013735
706,20.93694657766088
707,20.983104094398564
708,21.10076134423285
1683,254.52460000000003
1725,30.62730000000001
1731,10.131
1737,21.238305
1743,76.0
2009,0.0
2037,0.0
2,3, 6,17, 0, 1, 0.00,60.00,Wednesday
7,19.684999999999996
47,2780.82959564914
704,20.891761097344536
705,20.781671581752247
706,20.766139367271355
707,20.792962160010267
708,20.86102075206655
1683,25.45246
1725,0.0
1731,0.0
1737,0.0
1743,0.0
2009,0.0
2037,0.0
2,3, 6,17, 0, 2, 0.00,60.00,Wednesday
7,19.399999999999996
47,2780.82959564914
704,20.826175432525845
705,20.697525950724314
706,20.677756160638649
707,20.70634692218372
708,20.800853836581095
1683,0.0
1725,0.0
1731,0.0
1737,0.0
1743,0.0
2009,0.0
2037,0.0
2,3, 6,17, 0, 3, 0.00,60.00,Wednesday
7,19.137499999999997
47,2780.82959564914
704,20.811661420644144
705,20.632677984996584
706,20.613282106876587
707,20.647635249308388
708,20.738811601538197
1683,0.0
1725,0.0
1731,0.0
1737,0.0
1743,0.0
2009,0.0
2037,0.0
2,3, 6,17, 0, 4, 0.00,60.00,Wednesday
7,18.585
47,2780.82959564914
704,20.796288604651257
705,20.564236446732929
706,20.54490597686937
707,20.57116402627022
708,20.652450690634767
1683,0.0
1725,0.0
1731,0.0
1737,0.0
1743,0.0
2009,0.0
2037,0.0
2,3, 6,17, 0, 5, 0.00,60.00,Wednesday
7,18.0375
47,2780.82959564914
704,20.778211244165229
705,20.511856616314107
706,20.549282148582735
707,20.48810572817712
708,20.56234303793282
1683,0.0
1725,0.0
1731,0.0
1737,0.0
1743,0.0
2009,0.0
2037,0.0
2,3, 6,17, 0, 6, 0.00,60.00,Wednesday
7,18.062500000000005
47,3119.6039812842798
704,20.820199016270359
705,20.6772484638844
706,21.361341314557519
707,20.570345530130277
708,20.6381906322826
1683,0.0
1725,0.0
1731,50.65499999999999
1737,0.0
1743,0.0
2009,0.0
2037,0.0
2,3, 6,17, 0, 7, 0.00,60.00,Wednesday
7,18.614999999999996
47,4245.451607531919
704,20.13926992064048
705,20.28212968726735
706,22.201500425739668
707,20.250545819710835
708,20.140418407324668
1683,0.0
1725,0.0
1731,67.53999999999999
1737,0.0
1743,0.0
2009,0.0
2037,0.0
2,3, 6,17, 0, 8, 0.00,60.00,Wednesday
7,20.055000000000005
47,6049.250893545528
704,20.064412292958776
705,20.51405515087044
706,22.878118706847834
707,20.446841456891215
708,20.24499863317846
1683,0.0
1725,0.0
1731,67.53999999999999
1737,0.0
1743,0.0
2009,0.0
2037,0.0
2,3, 6,17, 0, 9, 0.00,60.00,Wednesday
7,21.415
47,18101.736647504957
704,21.03286079851533
705,21.443512478315044
706,23.760059670534653
707,21.48654675153191
708,21.15732276708511
1683,139.98853000000003
1725,68.91142500000002
1731,67.53999999999999
1737,63.71491499999998
1743,56.0
2009,0.0
2037,0.0
2,3, 6,17, 0,10, 0.00,60.00,Wednesday
7,23.1175
47,18101.736647504957
704,21.456614281601828
705,21.870537884447523
706,23.829359371355769
707,21.951744179755076
708,21.540792237112279
1683,254.52460000000003
1725,76.56825000000002
1731,67.53999999999999
1737,70.79434999999998
1743,80.0
2009,0.0
2037,0.0
2,3, 6,17, 0,11, 0.00,60.00,Wednesday
7,25.607499999999999
47,18265.019990212222
704,21.51718838313288
705,22.12931119524918
706,23.19367160273205
707,22.233907558058346
708,21.79540089984576
1683,254.52460000000003
1725,76.56825000000002
1731,67.53999999999999
1737,70.79434999999998
1743,80.0
2009,0.0
2037,0.0
2,3, 6,17, 0,12, 0.00,60.00,Wednesday
7,26.9625
47,18101.736647504957
704,21.5842028876756
705,22.29742987703487
706,22.937300669726768
707,22.5039451470505
708,21.976505388796605
1683,254.52460000000003
1725,76.56825000000002
1731,67.53999999999999
1737,70.79434999999998
1743,80.0
2009,0.0
2037,0.0
2,3, 6,17, 0,13, 0.00,60.00,Wednesday
7,27.514999999999995
47,14572.507325244462
704,21.396281917618074
705,22.189193419212449
706,22.594483454716813
707,22.5187603419189
708,21.925283039424629
1683,254.52460000000003
1725,76.56825000000002
1731,67.53999999999999
1737,70.79434999999998
1743,80.0
2009,0.0
2037,0.0
2,3, 6,17, 0,14, 0.00,60.00,Wednesday
7,27.485000000000008
47,18101.736647504957
704,21.61183729844165
705,22.398754358375624
706,22.62913484484185
707,22.732107968838503
708,22.23986401228469
1683,254.52460000000003
1725,76.56825000000002
1731,67.53999999999999
1737,70.79434999999998
1743,80.0
2009,0.0
2037,0.0
2,3, 6,17, 0,15, 0.00,60.00,Wednesday
7,26.9375
47,18265.019990212222
704,21.73205437084564
705,22.468035136376018
706,22.579975591471788
707,22.814506779070649
708,23.386507003557264
1683,254.52460000000003
1725,76.56825000000002
1731,67.53999999999999
1737,70.79434999999998
1743,80.0
2009,0.0
2037,0.0
2,3, 6,17, 0,16, 0.00,60.00,Wednesday
7,26.699999999999997
47,18101.736647504957
704,21.75815206273537
705,22.453043370144394
706,22.466981686384906
707,22.804670128555079
708,23.99813946917589
1683,254.52460000000003
1725,76.56825000000002
1731,67.53999999999999
1737,70.79434999999998
1743,80.0
2009,0.0
2037,0.0
2,3, 6,17, 0,17, 0.00,60.00,Wednesday
7,26.385
47,18101.736647504957
704,21.74652493093505
705,22.397443798820519
706,22.291630914516543
707,22.61590281724676
708,23.998246787328186
1683,254.52460000000003
1725,76.56825000000002
1731,67.53999999999999
1737,70.79434999999998
1743,80.0
2009,0.0
2037,0.0
2,3, 6,17, 0,18, 0.00,60.00,Wednesday
7,24.945
47,8609.530172617446
704,21.090839274888503
705,21.732368939853555
706,21.59316292315511
707,21.910282067868115
708,23.998674775156795
1683,152.71476
1725,76.56825000000002
1731,67.53999999999999
1737,70.79434999999998
1743,80.0
2009,0.0
2037,0.0
2,3, 6,17, 0,19, 0.00,60.00,Wednesday
7,23.322499999999999
47,5413.9869089617409
704,20.69549025363286
705,21.307347851738734
706,21.029218365778907
707,21.300297258695666
708,23.573036632900025
1683,0.0
1725,76.56825000000002
1731,33.769999999999999
1737,70.79434999999998
1743,80.0
2009,0.0
2037,0.0
2,3, 6,17, 0,20, 0.00,60.00,Wednesday
7,21.645
47,5413.9869089617409
704,20.49404732481069
705,20.964319315430545
706,20.77555988202294
707,20.881425529735659
708,21.988322923491969
1683,0.0
1725,11.4852375
1731,0.0
1737,35.397175
1743,80.0
2009,0.0
2037,0.0
2,3, 6,17, 0,21, 0.00,60.00,Wednesday
7,20.285000000000005
47,4829.719258246828
704,20.31421507581599
705,20.57431535242483
706,20.530428122050325
707,20.613175165132235
708,20.960921107377695
1683,0.0
1725,0.0
1731,0.0
1737,0.0
1743,32.0
2009,0.0
2037,0.0
2,3, 6,17, 0,22, 0.00,60.00,Wednesday
7,19.684999999999996
47,4829.719258246828
704,20.17856637519226
705,20.337758576225189
706,20.31973679524217
707,20.4066509094613
708,20.626132762151089
1683,0.0
1725,0.0
1731,0.0
1737,0.0
1743,0.0
2009,0.0
2037,0.0
2,3, 6,17, 0,23, 0.00,60.00,Wednesday
7,19.137499999999997
47,3927.819615240021
704,21.00552600460048
705,20.864375197505507
706,20.899022382613226
707,20.907306854405858
708,21.15729402026316
1683,152.71476
1725,22.970475000000005
1731,20.262000000000005
1737,0.0
1743,70.0
2009,0.0
2037,0.0
2,3, 6,17, 0,24, 0.00,60.00,Wednesday
7,18.899999999999996
47,3635.6857898825685
704,21.130936409147034
705,20.92838126394993
706,20.896024572519676
707,20.92091823914698
708,21.029806480432077
1683,254.52460000000003
1725,0.0
1731,0.0
1737,0.0
1743,52.0
2009,0.0
2037,0.0
2,4, 6,18, 0, 1, 0.00,60.00,Thursday
7,18.899999999999996
47,2780.82959564914
704,20.9137633429161
705,20.815217660004718
706,20.778009513201135
707,20.80192963829321
708,20.873463398801044
1683,38.17869
1725,0.0
1731,0.0
1737,0.0
1743,0.0
2009,0.0
2037,0.0
2,4, 6,18, 0, 2, 0.00,60.00,Thursday
7,18.899999999999996
47,2780.82959564914
704,20.857176916365515
705,20.767936532413516
706,20.73431378673488
707,20.755100371396084
708,20.837400331628325
1683,0.0
1725,0.0
1731,0.0
1737,0.0
1743,0.0
2009,0.0
2037,0.0
2,4, 6,18, 0, 3, 0.00,60.00,Thursday
7,18.585
47,2780.82959564914
704,20.85678802009739
705,20.713341196266908
706,20.679347351629369
707,20.70297654712797
708,20.779147035697357
1683,0.0
1725,0.0
1731,0.0
1737,0.0
1743,0.0
2009,0.0
2037,0.0
2,4, 6,18, 0, 4, 0.00,60.00,Thursday
7,18.300000000000006
47,2780.82959564914
704,20.854404841381425
705,20.625839830433877
706,20.59296067914018
707,20.618676809269908
708,20.683904573048275
1683,0.0
1725,0.0
1731,0.0
1737,0.0
1743,0.0
2009,0.0
2037,0.0
2,4, 6,18, 0, 5, 0.00,60.00,Thursday
7,18.300000000000006
47,2780.82959564914
704,20.83865271231482
705,20.577250277744484
706,20.580468440178696
707,20.555921173018406
708,20.60385145081747
1683,0.0
1725,0.0
1731,0.0
1737,0.0
1743,0.0
2009,0.0
2037,0.0
2,4, 6,18, 0, 6, 0.00,60.00,Thursday
7,18.8775
47,3119.6039812842798
704,20.86175409146611
705,20.74662329198373
706,21.12804814951919
707,20.662235326601498
708,20.708844009767974
1683,0.0
1725,0.0
1731,40.523999999999997
1737,0.0
1743,0.0
2009,0.0
2037,0.0
2,4, 6,18, 0, 7, 0.00,60.00,Thursday
7,19.715
47,4245.451607531919
704,20.112587346204145
705,20.373922302228189
706,21.486556402279797
707,20.329345202759055
708,20.211444467020127
1683,0.0
1725,0.0
1731,67.53999999999999
1737,0.0
1743,0.0
2009,0.0
2037,0.0
2,4, 6,18, 0, 8, 0.00,60.00,Thursday
7,21.470000000000004
47,6049.250893545528
704,20.017132823092458
705,20.626579116881407
706,22.371307939457734
707,20.577967101265899
708,20.380693086595195
1683,0.0
1725,0.0
1731,67.53999999999999
1737,0.0
1743,0.0
2009,0.0
2037,0.0
2,4, 6,18, 0, 9, 0.00,60.00,Thursday
7,24.27
47,18101.736647504957
704,20.943156811023238
705,21.6453994324125
706,23.45017130708032
707,21.711945823513099
708,21.369313525730456
1683,127.26230000000001
1725,72.73983750000002
1731,67.53999999999999
1737,67.25463249999999
1743,72.0
2009,0.0
2037,0.0
2,4, 6,18, 0,10, 0.00,60.00,Thursday
7,25.600000000000013
47,18101.736647504957
704,21.378089763972548
705,22.17636533601463
706,23.71357285308826
707,22.320778699218218
708,21.858107976593514
1683,254.52460000000003
1725,76.56825000000002
1731,67.53999999999999
1737,70.79434999999998
1743,80.0
2009,0.0
2037,0.0
2,4, 6,18, 0,11, 0.00,60.00,Thursday
7,25.8625
47,18265.019990212222
704,21.55645153501219
705,22.444908022951418
706,23.360281634913418
707,22.6642910207129
708,22.12354369968487
1683,254.52460000000003
1725,76.56825000000002
1731,67.53999999999999
1737,70.79434999999998
1743,80.0
2009,0.0
2037,0.0
2,4, 6,18, 0,12, 0.00,60.00,Thursday
7,25.5225
47,18101.736647504957
704,21.66427806678674
705,22.587105015504969
706,23.14477503282344
707,22.90617110263992
708,22.269775214042605
1683,254.52460000000003
1725,76.56825000000002
1731,67.53999999999999
1737,70.79434999999998
1743,80.0
2009,0.0
2037,0.0
2,4, 6,18, 0,13, 0.00,60.00,Thursday
7,25.315000000000006
47,14572.507325244462
704,21.45650682132476
705,22.44623702983079
706,22.764031040161329
707,22.84192353456548
708,22.205163947637119
1683,254.52460000000003
1725,76.56825000000002
1731,67.53999999999999
1737,70.79434999999998
1743,80.0
2009,0.0
2037,0.0
2,4, 6,18, 0,14, 0.00,60.00,Thursday
7,26.1775
47,18101.736647504957
704,21.646460254463535
705,22.6303237546805
706,22.794951561963278
707,23.019299436369786
708,22.55037229352199
1683,254.52460000000003
1725,76.56825000000002
1731,67.53999999999999
1737,70.79434999999998
1743,80.0
2009,0.0
2037,0.0
2,4, 6,18, 0,15, 0.00,60.00,Thursday
7,25.807499999999999
47,18265.019990212222
704,21.777592220907939
705,22.723145822654595
706,22.78563655741312
707,23.119946088516046
708,23.3565887806376
1683,254.52460000000003
1725,76.56825000000002
1731,67.53999999999999
1737,70.79434999999998
1743,80.0
2009,0.0
2037,0.0
2,4, 6,18, 0,16, 0.00,60.00,Thursday
7,24.684999999999996
47,18101.736647504957
704,21.809188320416639
705,22.68113949781162
706,22.67147666725309
707,23.008853992286445
708,23.39832412551713
1683,254.52460000000003
1725,76.56825000000002
1731,67.53999999999999
1737,70.79434999999998
1743,80.0
2009,0.0
2037,0.0
2,4, 6,18, 0,17, 0.00,60.00,Thursday
7,23.560000000000004
47,18101.736647504957
704,21.743487330455915
705,22.362427976489625
706,22.299774938276174
707,22.585944675119817
708,22.60182783797055
1683,254.52460000000003
1725,76.56825000000002
1731,67.53999999999999
1737,70.79434999999998
1743,80.0
2009,0.0
2037,0.0
2,4, 6,18, 0,18, 0.00,60.00,Thursday
7,21.907500000000004
47,8609.530172617446
704,20.991634353008715
705,21.46504943055448
706,21.397315038439513
707,21.637808099243168
708,21.45137959333396
1683,101.80984
1725,76.56825000000002
1731,67.53999999999999
1737,70.79434999999998
1743,80.0
2009,0.0
2037,0.0
2,4, 6,18, 0,19, 0.00,60.00,Thursday
7,21.415
47,5413.9869089617409
704,20.49043506359176
705,20.887308476870027
706,20.870312517145849
707,21.011605660349117
708,20.8447544966008
1683,0.0
1725,38.28412500000001
1731,6.7540000000000008
1737,14.158869999999997
1743,6.666666666666666
2009,0.0
2037,0.0
2,4, 6,18, 0,20, 0.00,60.00,Thursday
7,21.699999999999997
47,5413.9869089617409
704,20.275549675947276
705,20.673133223500316
706,20.69531098559472
707,20.788890061854845
708,20.643472835963487
1683,0.0
1725,0.0
1731,0.0
1737,0.0
1743,0.0
2009,0.0
2037,0.0
2,4, 6,18, 0,21, 0.00,60.00,Thursday
7,21.385
47,4829.719258246828
704,20.154295761697289
705,20.511334712557518
706,20.53493006483705
707,20.63440108384225
708,20.464358891054589
1683,0.0
1725,0.0
1731,0.0
1737,0.0
1743,0.0
2009,0.0
2037,0.0
2,4, 6,18, 0,22, 0.00,60.00,Thursday
7,21.100000000000006
47,4829.719258246828
704,20.08808702221706
705,20.387466809660574
706,20.4042817686746
707,20.510645825575695
708,20.323992431181759
1683,0.0
1725,0.0
1731,0.0
1737,0.0
1743,0.0
2009,0.0
2037,0.0
2,4, 6,18, 0,23, 0.00,60.00,Thursday
7,21.100000000000006
47,3927.819615240021
704,21.009212791215377
705,21.14030336935932
706,21.173045522152074
707,21.207713297697148
708,21.155877419542486
1683,152.71476
1725,61.25460000000002
1731,54.032
1737,53.0957625
1743,60.0
2009,0.0
2037,0.0
2,4, 6,18, 0,24, 0.00,60.00,Thursday
7,21.100000000000006
47,3635.6857898825685
704,21.20787354079591
705,21.21733960140906
706,21.202687639955984
707,21.257315042656708
708,21.185277878886195
1683,254.52460000000003
1725,76.56825000000002
1731,67.53999999999999
1737,70.79434999999998
1743,80.0
2009,0.0
2037,0.0
2,5, 6,19, 0, 1, 0.00,60.00,Friday
7,21.100000000000006
47,2780.82959564914
704,21.003493626389166
705,21.01495334359142
706,20.985972637171807
707,21.041930616836188
708,20.97147893723868
1683,127.26230000000001
1725,57.42618750000001
1731,23.639000000000004
1737,38.9368925
1743,20.0
2009,0.0
2037,0.0
2,5, 6,19, 0, 2, 0.00,60.00,Friday
7,20.8375
47,2780.82959564914
704,20.938268604974917
705,20.942705257252233
706,20.95092569600631
707,20.954130297737806
708,20.951244645664724
1683,0.0
1725,0.0
1731,0.0
1737,0.0
1743,0.0
2009,0.0
2037,0.0
2,5, 6,19, 0, 3, 0.00,60.00,Friday
7,20.600000000000006
47,2780.82959564914
704,20.945982992868545
705,20.927717054808587
706,20.946155341049989
707,20.944219770147986
708,20.94772888862729
1683,0.0
1725,0.0
1731,0.0
1737,0.0
1743,0.0
2009,0.0
2037,0.0
2,5, 6,19, 0, 4, 0.00,60.00,Friday
7,20.862500000000006
47,2780.82959564914
704,20.958235002695106
705,20.937375011433525
706,20.955454506444853
707,20.952583417779679
708,20.9588358254054
1683,0.0
1725,0.0
1731,0.0
1737,0.0
1743,0.0
2009,0.0
2037,0.0
2,5, 6,19, 0, 5, 0.00,60.00,Friday
7,20.8375
47,2780.82959564914
704,20.97014919562879
705,20.955147522582985
706,20.998426787719106
707,20.963427493092916
708,20.967363050008438
1683,0.0
1725,0.0
1731,16.885
1737,0.0
1743,0.0
2009,0.0
2037,0.0
2,5, 6,19, 0, 6, 0.00,60.00,Friday
7,20.862500000000006
47,3119.6039812842798
704,21.00058965815757
705,21.062530997033723
706,21.504247744980718
707,21.032022832155286
708,21.01558340511321
1683,165.44099000000004
1725,53.59777500000001