Program Version,EnergyPlus, Version 9.5.0-de239b2e5f, YMD=2021.07.16 14:24
1,5,Environment Title[],Latitude[deg],Longitude[deg],Time Zone[],Elevation[m]
2,8,Day of Simulation[],Month[],Day of Month[],DST Indicator[1=yes 0=no],Hour[],StartMinute[],EndMinute[],DayType
3,5,Cumulative Day of Simulation[],Month[],Day of Month[],DST Indicator[1=yes 0=no],DayType  ! When Daily Meters Requested
4,2,Cumulative Days of Simulation[],Month[]  ! When Monthly Meters Requested
5,1,Cumulative Days of Simulation[] ! When Run Period Meters Requested
6,1,Calendar Year of Simulation[] ! When Annual Meters Requested
10,1,Electricity:Facility [J] !Hourly
1509,1,ElectricityNet:Facility [J] !Hourly
46,1,InteriorLights:Electricity [J] !Hourly
433,1,InteriorEquipment:Electricity [J] !Hourly
End of Data Dictionary
1,ATLANTA-HARTSFIELD.JACKSON.INTL.AP_GA_USA ANN HTG 99.6% CONDNS DB,  33.63, -84.43,  -5.00, 308.00
2,1, 1,21, 0, 1, 0.00,60.00,WinterDesignDay
10,115919623.926708
46,0.0
433,0.0
1509,115919623.926708
2,1, 1,21, 0, 2, 0.00,60.00,WinterDesignDay
10,115955623.926708
46,0.0
433,0.0
1509,115955623.926708
2,1, 1,21, 0, 3, 0.00,60.00,WinterDesignDay
10,115919623.926708
46,0.0
433,0.0
1509,115919623.926708
2,1, 1,21, 0, 4, 0.00,60.00,WinterDesignDay
10,115919623.926708
46,0.0
433,0.0
1509,115919623.926708
2,1, 1,21, 0, 5, 0.00,60.00,WinterDesignDay
10,115919623.926708
46,0.0
433,0.0
1509,115919623.926708
2,1, 1,21, 0, 6, 0.00,60.00,WinterDesignDay
10,115919623.926708
46,0.0
433,0.0
1509,115919623.926708
2,1, 1,21, 0, 7, 0.00,60.00,WinterDesignDay
10,126063883.92670787
46,0.0
433,0.0
1509,126063883.92670787
2,1, 1,21, 0, 8, 0.00,60.00,WinterDesignDay
10,121423033.92670787
46,0.0
433,0.0
1509,121423033.92670787
2,1, 1,21, 0, 9, 0.00,60.00,WinterDesignDay
10,107248483.92670802
46,0.0
433,0.0
1509,107248483.92670802
2,1, 1,21, 0,10, 0.00,60.00,WinterDesignDay
10,107284483.92670802
46,0.0
433,0.0
1509,107284483.92670802
2,1, 1,21, 0,11, 0.00,60.00,WinterDesignDay
10,107284483.92670802
46,0.0
433,0.0
1509,107284483.92670802
2,1, 1,21, 0,12, 0.00,60.00,WinterDesignDay
10,107248483.92670802
46,0.0
433,0.0
1509,107248483.92670802
2,1, 1,21, 0,13, 0.00,60.00,WinterDesignDay
10,107284483.92670802
46,0.0
433,0.0
1509,107284483.92670802
2,1, 1,21, 0,14, 0.00,60.00,WinterDesignDay
10,107284483.92670802
46,0.0
433,0.0
1509,107284483.92670802
2,1, 1,21, 0,15, 0.00,60.00,WinterDesignDay
10,107284483.92670802
46,0.0
433,0.0
1509,107284483.92670802
2,1, 1,21, 0,16, 0.00,60.00,WinterDesignDay
10,107248483.92670802
46,0.0
433,0.0
1509,107248483.92670802
2,1, 1,21, 0,17, 0.00,60.00,WinterDesignDay
10,107284483.92670802
46,0.0
433,0.0
1509,107284483.92670802
2,1, 1,21, 0,18, 0.00,60.00,WinterDesignDay
10,109798003.92670802
46,0.0
433,0.0
1509,109798003.92670802
2,1, 1,21, 0,19, 0.00,60.00,WinterDesignDay
10,126423883.92670787
46,0.0
433,0.0
1509,126423883.92670787
2,1, 1,21, 0,20, 0.00,60.00,WinterDesignDay
10,118429003.926708
46,0.0
433,0.0
1509,118429003.92670787
2,1, 1,21, 0,21, 0.00,60.00,WinterDesignDay
10,118465003.926708
46,0.0
433,0.0
1509,118465003.92670787
2,1, 1,21, 0,22, 0.00,60.00,WinterDesignDay
10,118501003.926708
46,0.0
433,0.0
1509,118501003.92670787
2,1, 1,21, 0,23, 0.00,60.00,WinterDesignDay
10,118501003.926708
46,0.0
433,0.0
1509,118501003.92670787
2,1, 1,21, 0,24, 0.00,60.00,WinterDesignDay
10,118501003.926708
46,0.0
433,0.0
1509,118501003.92670787
1,ATLANTA-HARTSFIELD.JACKSON.INTL.AP_GA_USA ANN CLG .4% CONDNS DB=>MWB,  33.63, -84.43,  -5.00, 308.00
2,1, 7,21, 0, 1, 0.00,60.00,SummerDesignDay
10,523760640.6234784
46,152517470.7542746
433,224813060.55296675
1509,523760640.6234784
2,1, 7,21, 0, 2, 0.00,60.00,SummerDesignDay
10,523820640.6234784
46,152517470.7542746
433,224813060.55296675
1509,523820640.6234784
2,1, 7,21, 0, 3, 0.00,60.00,SummerDesignDay
10,523910640.6234784
46,152517470.7542746
433,224813060.55296675
1509,523910640.6234784
2,1, 7,21, 0, 4, 0.00,60.00,SummerDesignDay
10,524036640.6234784
46,152517470.7542746
433,224813060.55296675
1509,524036640.6234784
2,1, 7,21, 0, 5, 0.00,60.00,SummerDesignDay
10,524048640.6234784
46,152517470.7542746
433,224813060.55296675
1509,524048640.6234784
2,1, 7,21, 0, 6, 0.00,60.00,SummerDesignDay
10,521844236.3818794
46,152399851.51267544
433,224813060.55296675
1509,521844236.3818794
2,1, 7,21, 0, 7, 0.00,60.00,SummerDesignDay
10,491273199.54922
46,129457169.68001552
433,224813060.55296675
1509,491273199.5492201
2,1, 7,21, 0, 8, 0.00,60.00,SummerDesignDay
10,482114337.952093
46,120340308.08288898
433,224813060.55296675
1509,482114337.95209297
2,1, 7,21, 0, 9, 0.00,60.00,SummerDesignDay
10,474814278.4997982
46,119991185.40467149
433,224813060.55296675
1509,474814278.4997982
2,1, 7,21, 0,10, 0.00,60.00,SummerDesignDay
10,463301205.89002946
46,119991185.40467149
433,224813060.55296675
1509,463301205.89002946
2,1, 7,21, 0,11, 0.00,60.00,SummerDesignDay
10,463301205.89002946
46,119991185.40467149
433,224813060.55296675
1509,463301205.89002946
2,1, 7,21, 0,12, 0.00,60.00,SummerDesignDay
10,463301205.89002946
46,119991185.40467149
433,224813060.55296675
1509,463301205.89002946
2,1, 7,21, 0,13, 0.00,60.00,SummerDesignDay
10,463301205.89002946
46,119991185.40467149
433,224813060.55296675
1509,463301205.89002946
2,1, 7,21, 0,14, 0.00,60.00,SummerDesignDay
10,463301205.89002946
46,119991185.40467149
433,224813060.55296675
1509,463301205.89002946
2,1, 7,21, 0,15, 0.00,60.00,SummerDesignDay
10,463301205.89002946
46,119991185.40467149
433,224813060.55296675
1509,463301205.89002946
2,1, 7,21, 0,16, 0.00,60.00,SummerDesignDay
10,463319205.89002946
46,119991185.40467149
433,224813060.55296675
1509,463319205.89002946
2,1, 7,21, 0,17, 0.00,60.00,SummerDesignDay
10,463301205.89002946
46,119991185.40467149
433,224813060.55296675
1509,463301205.89002946
2,1, 7,21, 0,18, 0.00,60.00,SummerDesignDay
10,463335461.65843179
46,120025441.17307365
433,224813060.55296675
1509,463335461.65843179
2,1, 7,21, 0,19, 0.00,60.00,SummerDesignDay
10,465578167.01781538
46,122268146.53245703
433,224813060.55296675
1509,465578167.01781538
2,1, 7,21, 0,20, 0.00,60.00,SummerDesignDay
10,493420102.3737012
46,146615183.8883431
433,224813060.55296675
1509,493420102.3737022
2,1, 7,21, 0,21, 0.00,60.00,SummerDesignDay
10,506864011.2396321
46,152517470.7542746
433,224813060.55296675
1509,506864011.23963388
2,1, 7,21, 0,22, 0.00,60.00,SummerDesignDay
10,506864011.2396321
46,152517470.7542746
433,224813060.55296675
1509,506864011.23963388
2,1, 7,21, 0,23, 0.00,60.00,SummerDesignDay
10,525310020.6234784
46,152517470.7542746
433,224813060.55296675
1509,525310020.6234784
2,1, 7,21, 0,24, 0.00,60.00,SummerDesignDay
10,526018020.6234784
46,152517470.7542746
433,224813060.55296675
1509,526018020.6234784
1,RUNPERIOD 1,  33.63, -84.43,  -5.00, 308.00
2,1, 7, 1, 0, 1, 0.00,60.00,Sunday
10,57869388.912013288
46,7625873.53771374
433,33399901.50135806
1509,57869388.912013288
2,1, 7, 1, 0, 2, 0.00,60.00,Sunday
10,60906286.68173546
46,7625873.53771374
433,33399901.50135806
1509,60906286.68173546
2,1, 7, 1, 0, 3, 0.00,60.00,Sunday
10,63327586.20778593
46,7625873.53771374
433,33399901.50135806
1509,63327586.20778593
2,1, 7, 1, 0, 4, 0.00,60.00,Sunday
10,55132928.77057817
46,7625873.53771374
433,33399901.50135806
1509,55132928.77057817
2,1, 7, 1, 0, 5, 0.00,60.00,Sunday
10,58181826.54030031
46,7625873.53771374
433,33399901.50135806
1509,58181826.54030031
2,1, 7, 1, 0, 6, 0.00,60.00,Sunday
10,57613347.99823403
46,7413329.546520042
433,33399901.50135806
1509,57613347.99823403
2,1, 7, 1, 0, 7, 0.00,60.00,Sunday
10,81983412.09344036
46,5390491.487484721
433,41385398.908734139
1509,81983412.09344036
2,1, 7, 1, 0, 8, 0.00,60.00,Sunday
10,83434975.51584557
46,5204671.525274598
433,41385398.908734139
1509,83434975.51584557
2,1, 7, 1, 0, 9, 0.00,60.00,Sunday
10,84383457.84570308
46,5173573.547439724
433,41385398.908734139
1509,84383457.84570308
2,1, 7, 1, 0,10, 0.00,60.00,Sunday
10,84875457.84570308
46,5173573.547439724
433,41385398.908734139
1509,84875457.84570308
2,1, 7, 1, 0,11, 0.00,60.00,Sunday
10,84875457.84570308
46,5173573.547439724
433,41385398.908734139
1509,84875457.84570308
2,1, 7, 1, 0,12, 0.00,60.00,Sunday
10,84905457.84570308
46,5173573.547439724
433,41385398.908734139
1509,84905457.84570308
2,1, 7, 1, 0,13, 0.00,60.00,Sunday
10,85001457.84570308
46,5173573.547439724
433,41385398.908734139
1509,85001457.84570308
2,1, 7, 1, 0,14, 0.00,60.00,Sunday
10,84785457.84570308
46,5173573.547439724
433,41385398.908734139
1509,84785457.84570308
2,1, 7, 1, 0,15, 0.00,60.00,Sunday
10,84845457.84570308
46,5173573.547439724
433,41385398.908734139
1509,84845457.84570308
2,1, 7, 1, 0,16, 0.00,60.00,Sunday
10,84893994.92981293
46,5174110.6315495599
433,41385398.908734139
1509,84893994.92981293
2,1, 7, 1, 0,17, 0.00,60.00,Sunday
10,84650967.62507689
46,5231083.3268135399
433,41385398.908734139
1509,84650967.62507689
2,1, 7, 1, 0,18, 0.00,60.00,Sunday
10,84018442.86259112
46,5282558.564327782
433,41385398.908734139
1509,84018442.86259112
2,1, 7, 1, 0,19, 0.00,60.00,Sunday
10,75767803.12597135
46,6361416.235084032
433,33399901.50135806
1509,75767803.12597135
2,1, 7, 1, 0,20, 0.00,60.00,Sunday
10,65369271.23588248
46,7515599.885422203
433,33399901.50135806
1509,65369271.23588249
2,1, 7, 1, 0,21, 0.00,60.00,Sunday
10,60236701.745264727
46,7625873.53771374
433,33399901.50135806
1509,60236701.74526471
2,1, 7, 1, 0,22, 0.00,60.00,Sunday
10,65330158.117960508
46,7625873.53771374
433,33399901.50135806
1509,65330158.117960508
2,1, 7, 1, 0,23, 0.00,60.00,Sunday
10,67300229.86187777
46,7625873.53771374
433,33399901.50135806
1509,67300229.86187776
2,1, 7, 1, 0,24, 0.00,60.00,Sunday
10,58305907.014249797
46,7625873.53771374
433,33399901.50135806
1509,58305907.01424979
2,2, 7, 2, 0, 1, 0.00,60.00,Monday
10,84901615.88936383
46,7625873.53771374
433,44533202.00181081
1509,84901615.88936383
2,2, 7, 2, 0, 2, 0.00,60.00,Monday
10,69447917.1945991
46,7625873.53771374
433,44533202.00181081
1509,69447917.1945991
2,2, 7, 2, 0, 3, 0.00,60.00,Monday
10,69229546.73306065
46,7625873.53771374
433,44533202.00181081
1509,69229546.73306065
2,2, 7, 2, 0, 4, 0.00,60.00,Monday
10,69669564.66904
46,7625873.53771374
433,44533202.00181081
1509,69669564.66903998
2,2, 7, 2, 0, 5, 0.00,60.00,Monday
10,70024002.29732703
46,7625873.53771374
433,44533202.00181081
1509,70024002.29732701
2,2, 7, 2, 0, 6, 0.00,60.00,Monday
10,76914360.97647591
46,15251747.07542748
433,44533202.00181081
1509,76914360.97647591
2,2, 7, 2, 0, 7, 0.00,60.00,Monday
10,100929675.62798909
46,12081689.219203884
433,55180531.87831209
1509,100929675.62798901
2,2, 7, 2, 0, 8, 0.00,60.00,Monday
10,261654798.9196053
46,31130404.104440474
433,95796493.41677362
1509,261654798.91960529
2,2, 7, 2, 0, 9, 0.00,60.00,Monday
10,434210956.92932119
46,93124323.85391505
433,204227663.7591696
1509,434210956.92932119
2,2, 7, 2, 0,10, 0.00,60.00,Monday
10,404051099.7864642
46,93124323.85391505
433,174055806.61631225
1509,404051099.7864642
2,2, 7, 2, 0,11, 0.00,60.00,Monday
10,397082363.5227287
46,93124323.85391505
433,167093070.3525762
1509,397082363.5227287
2,2, 7, 2, 0,12, 0.00,60.00,Monday
10,403925099.7864642
46,93124323.85391505
433,174055806.61631225
1509,403925099.7864642
2,2, 7, 2, 0,13, 0.00,60.00,Monday
10,406060140.02757349
46,93124323.85391505
433,177667514.30607493
1509,406060140.0275735
2,2, 7, 2, 0,14, 0.00,60.00,Monday
10,391479370.6223989
46,93124323.85391505
433,179858086.83609239
1509,391479370.6223989
2,2, 7, 2, 0,15, 0.00,60.00,Monday
10,378714354.13888308
46,93124323.85391505
433,167093070.3525762
1509,378714354.13888308
2,2, 7, 2, 0,16, 0.00,60.00,Monday
10,378714354.13888308
46,93124323.85391505
433,167093070.3525762
1509,378714354.13888308
2,2, 7, 2, 0,17, 0.00,60.00,Monday
10,389158458.5344866
46,93124323.85391505
433,177537174.74818046
1509,389158458.5344866
2,2, 7, 2, 0,18, 0.00,60.00,Monday
10,313571130.00054576
46,51749162.5771431
433,140923939.57316477
1509,313571130.00054576
2,2, 7, 2, 0,19, 0.00,60.00,Monday
10,237561588.5145324
46,31518614.792510638
433,69106004.40578471
1509,237561588.5145324
2,2, 7, 2, 0,20, 0.00,60.00,Monday
10,237223101.0327301
46,37382529.66235644
433,59822356.054136309
1509,237223101.0327301
2,2, 7, 2, 0,21, 0.00,60.00,Monday
10,235299789.26610593
46,26303943.895732464
433,59822356.054136309
1509,235299789.26610593
2,2, 7, 2, 0,22, 0.00,60.00,Monday
10,118433273.86969725
46,26303943.895732464
433,55180531.87831209
1509,118433273.86969725
2,2, 7, 2, 0,23, 0.00,60.00,Monday
10,104945923.95815075
46,13151971.947866232
433,55180531.87831209
1509,104945923.95815075
2,2, 7, 2, 0,24, 0.00,60.00,Monday
10,92040629.30382961
46,6575985.973933116
433,55180531.87831209
1509,92040629.30382961
End of Data
 Number of Records Written=         384
