Program Version,EnergyPlus, Version 9.5.0-de239b2e5f, YMD=2021.07.26 22:26
1,5,Environment Title[],Latitude[deg],Longitude[deg],Time Zone[],Elevation[m]
2,8,Day of Simulation[],Month[],Day of Month[],DST Indicator[1=yes 0=no],Hour[],StartMinute[],EndMinute[],DayType
3,5,Cumulative Day of Simulation[],Month[],Day of Month[],DST Indicator[1=yes 0=no],DayType  ! When Daily Meters Requested
4,2,Cumulative Days of Simulation[],Month[]  ! When Monthly Meters Requested
5,1,Cumulative Days of Simulation[] ! When Run Period Meters Requested
6,1,Calendar Year of Simulation[] ! When Annual Meters Requested
10,1,Electricity:Facility [J] !Hourly
1514,1,ElectricityNet:Facility [J] !Hourly
46,1,InteriorLights:Electricity [J] !Hourly
433,1,InteriorEquipment:Electricity [J] !Hourly
End of Data Dictionary
1,ATLANTA-HARTSFIELD.JACKSON.INTL.AP_GA_USA ANN HTG 99.6% CONDNS DB,  41.98, -87.92,  -6.00, 201.00
2,1, 1,21, 0, 1, 0.00,60.00,WinterDesignDay
10,114747882.84253292
46,0.0
433,0.0
1514,114747882.84253279
2,1, 1,21, 0, 2, 0.00,60.00,WinterDesignDay
10,114769482.84253292
46,0.0
433,0.0
1514,114769482.84253279
2,1, 1,21, 0, 3, 0.00,60.00,WinterDesignDay
10,114762282.84253292
46,0.0
433,0.0
1514,114762282.84253279
2,1, 1,21, 0, 4, 0.00,60.00,WinterDesignDay
10,114755082.84253292
46,0.0
433,0.0
1514,114755082.84253279
2,1, 1,21, 0, 5, 0.00,60.00,WinterDesignDay
10,114769482.84253292
46,0.0
433,0.0
1514,114769482.84253279
2,1, 1,21, 0, 6, 0.00,60.00,WinterDesignDay
10,114747882.84253292
46,0.0
433,0.0
1514,114747882.84253279
2,1, 1,21, 0, 7, 0.00,60.00,WinterDesignDay
10,125014542.84253294
46,0.0
433,0.0
1514,125014542.84253282
2,1, 1,21, 0, 8, 0.00,60.00,WinterDesignDay
10,112175952.84253294
46,0.0
433,0.0
1514,112175952.8425329
2,1, 1,21, 0, 9, 0.00,60.00,WinterDesignDay
10,106206342.84253292
46,0.0
433,0.0
1514,106206342.84253292
2,1, 1,21, 0,10, 0.00,60.00,WinterDesignDay
10,106206342.84253292
46,0.0
433,0.0
1514,106206342.84253292
2,1, 1,21, 0,11, 0.00,60.00,WinterDesignDay
10,106206342.84253292
46,0.0
433,0.0
1514,106206342.84253292
2,1, 1,21, 0,12, 0.00,60.00,WinterDesignDay
10,106206342.84253292
46,0.0
433,0.0
1514,106206342.84253292
2,1, 1,21, 0,13, 0.00,60.00,WinterDesignDay
10,106206342.84253292
46,0.0
433,0.0
1514,106206342.84253292
2,1, 1,21, 0,14, 0.00,60.00,WinterDesignDay
10,106206342.84253292
46,0.0
433,0.0
1514,106206342.84253292
2,1, 1,21, 0,15, 0.00,60.00,WinterDesignDay
10,106206342.84253292
46,0.0
433,0.0
1514,106206342.84253292
2,1, 1,21, 0,16, 0.00,60.00,WinterDesignDay
10,106206342.84253292
46,0.0
433,0.0
1514,106206342.84253292
2,1, 1,21, 0,17, 0.00,60.00,WinterDesignDay
10,110619402.84253292
46,0.0
433,0.0
1514,110619402.84253292
2,1, 1,21, 0,18, 0.00,60.00,WinterDesignDay
10,125057742.84253294
46,0.0
433,0.0
1514,125057742.84253282
2,1, 1,21, 0,19, 0.00,60.00,WinterDesignDay
10,125165742.84253294
46,0.0
433,0.0
1514,125165742.84253282
2,1, 1,21, 0,20, 0.00,60.00,WinterDesignDay
10,117322062.84253292
46,0.0
433,0.0
1514,117322062.84253292
2,1, 1,21, 0,21, 0.00,60.00,WinterDesignDay
10,117314862.84253292
46,0.0
433,0.0
1514,117314862.84253292
2,1, 1,21, 0,22, 0.00,60.00,WinterDesignDay
10,117300462.84253292
46,0.0
433,0.0
1514,117300462.84253292
2,1, 1,21, 0,23, 0.00,60.00,WinterDesignDay
10,117307662.84253292
46,0.0
433,0.0
1514,117307662.84253292
2,1, 1,21, 0,24, 0.00,60.00,WinterDesignDay
10,117314862.84253292
46,0.0
433,0.0
1514,117314862.84253292
1,ATLANTA-HARTSFIELD.JACKSON.INTL.AP_GA_USA ANN CLG .4% CONDNS DB=>MWB,  41.98, -87.92,  -6.00, 201.00
2,1, 7,21, 0, 1, 0.00,60.00,SummerDesignDay
10,520082326.014348
46,152517470.7542746
433,224813060.55296675
1514,520082326.0143479
2,1, 7,21, 0, 2, 0.00,60.00,SummerDesignDay
10,520160326.014348
46,152517470.7542746
433,224813060.55296675
1514,520160326.0143479
2,1, 7,21, 0, 3, 0.00,60.00,SummerDesignDay
10,520298326.014348
46,152517470.7542746
433,224813060.55296675
1514,520298326.0143479
2,1, 7,21, 0, 4, 0.00,60.00,SummerDesignDay
10,520406326.014348
46,152517470.7542746
433,224813060.55296675
1514,520406326.014348
2,1, 7,21, 0, 5, 0.00,60.00,SummerDesignDay
10,516645487.27804496
46,151876050.01797123
433,224813060.55296675
1514,516645487.27804496
2,1, 7,21, 0, 6, 0.00,60.00,SummerDesignDay
10,486454246.70095536
46,127818531.44088145
433,224813060.55296675
1514,486454246.7009553
2,1, 7,21, 0, 7, 0.00,60.00,SummerDesignDay
10,478476702.7709023
46,120428987.51082859
433,224813060.55296675
1514,478476702.7709023
2,1, 7,21, 0, 8, 0.00,60.00,SummerDesignDay
10,477990900.6647452
46,119991185.40467149
433,224813060.55296675
1514,477990900.6647452
2,1, 7,21, 0, 9, 0.00,60.00,SummerDesignDay
10,464884395.9489928
46,119991185.40467149
433,224813060.55296675
1514,464884395.9489928
2,1, 7,21, 0,10, 0.00,60.00,SummerDesignDay
10,460945285.81811168
46,119991185.40467149
433,224813060.55296675
1514,460945285.81811168
2,1, 7,21, 0,11, 0.00,60.00,SummerDesignDay
10,460945285.81811168
46,119991185.40467149
433,224813060.55296675
1514,460945285.81811168
2,1, 7,21, 0,12, 0.00,60.00,SummerDesignDay
10,460945285.81811168
46,119991185.40467149
433,224813060.55296675
1514,460945285.81811168
2,1, 7,21, 0,13, 0.00,60.00,SummerDesignDay
10,460945285.81811168
46,119991185.40467149
433,224813060.55296675
1514,460945285.81811168
2,1, 7,21, 0,14, 0.00,60.00,SummerDesignDay
10,460945285.81811168
46,119991185.40467149
433,224813060.55296675
1514,460945285.81811168
2,1, 7,21, 0,15, 0.00,60.00,SummerDesignDay
10,460969285.81811168
46,119991185.40467149
433,224813060.55296675
1514,460969285.81811168
2,1, 7,21, 0,16, 0.00,60.00,SummerDesignDay
10,460945285.81811168
46,119991185.40467149
433,224813060.55296675
1514,460945285.81811168
2,1, 7,21, 0,17, 0.00,60.00,SummerDesignDay
10,460969285.81811168
46,119991185.40467149
433,224813060.55296675
1514,460969285.81811168
2,1, 7,21, 0,18, 0.00,60.00,SummerDesignDay
10,461499502.87227258
46,120545402.45883227
433,224813060.55296675
1514,461499502.87227258
2,1, 7,21, 0,19, 0.00,60.00,SummerDesignDay
10,471554803.3744953
46,130600702.96105461
433,224813060.55296675
1514,471554803.3744953
2,1, 7,21, 0,20, 0.00,60.00,SummerDesignDay
10,501263462.9802569
46,152399856.5668155
433,224813060.55296675
1514,501263462.98025527
2,1, 7,21, 0,21, 0.00,60.00,SummerDesignDay
10,504508091.167716
46,152517470.7542746
433,224813060.55296675
1514,504508091.1677143
2,1, 7,21, 0,22, 0.00,60.00,SummerDesignDay
10,506180852.65237906
46,152517470.7542746
433,224813060.55296675
1514,506180852.65237769
2,1, 7,21, 0,23, 0.00,60.00,SummerDesignDay
10,521847706.014348
46,152517470.7542746
433,224813060.55296675
1514,521847706.014348
2,1, 7,21, 0,24, 0.00,60.00,SummerDesignDay
10,522495706.014348
46,152517470.7542746
433,224813060.55296675
1514,522495706.014348
1,RUNPERIOD 1,  41.98, -87.92,  -6.00, 201.00
2,1, 7, 1, 0, 1, 0.00,60.00,Sunday
10,50062296.58799493
46,7625873.53771374
433,33399901.50135806
1514,50062296.58799493
2,1, 7, 1, 0, 2, 0.00,60.00,Sunday
10,49999967.26811801
46,7625873.53771374
433,33399901.50135806
1514,49999967.26811801
2,1, 7, 1, 0, 3, 0.00,60.00,Sunday
10,49953220.27821033
46,7625873.53771374
433,33399901.50135806
1514,49953220.27821033
2,1, 7, 1, 0, 4, 0.00,60.00,Sunday
10,49968802.608179558
46,7625873.53771374
433,33399901.50135806
1514,49968802.608179558
2,1, 7, 1, 0, 5, 0.00,60.00,Sunday
10,44916019.58927686
46,7589862.868964931
433,33399901.50135806
1514,44916019.58927686
2,1, 7, 1, 0, 6, 0.00,60.00,Sunday
10,40872922.32968093
46,6802980.639645916
433,33399901.50135806
1514,40872922.32968092
2,1, 7, 1, 0, 7, 0.00,60.00,Sunday
10,70151327.51442951
46,5226009.292166391
433,41385398.908734139
1514,70151327.51442951
2,1, 7, 1, 0, 8, 0.00,60.00,Sunday
10,57317746.190768707
46,5182166.329514174
433,41385398.908734139
1514,57317746.190768707
2,1, 7, 1, 0, 9, 0.00,60.00,Sunday
10,76743886.18298698
46,5173573.547439724
433,41385398.908734139
1514,76743886.18298698
2,1, 7, 1, 0,10, 0.00,60.00,Sunday
10,80280884.32074836
46,5173573.547439724
433,41385398.908734139
1514,80280884.32074836
2,1, 7, 1, 0,11, 0.00,60.00,Sunday
10,80700884.32074836
46,5173573.547439724
433,41385398.908734139
1514,80700884.32074836
2,1, 7, 1, 0,12, 0.00,60.00,Sunday
10,81168884.32074836
46,5173573.547439724
433,41385398.908734139
1514,81168884.32074836
2,1, 7, 1, 0,13, 0.00,60.00,Sunday
10,81546884.32074836
46,5173573.547439724
433,41385398.908734139
1514,81546884.32074836
2,1, 7, 1, 0,14, 0.00,60.00,Sunday
10,81354884.32074836
46,5173573.547439724
433,41385398.908734139
1514,81354884.32074836
2,1, 7, 1, 0,15, 0.00,60.00,Sunday
10,80532884.32074836
46,5173573.547439724
433,41385398.908734139
1514,80532884.32074836
2,1, 7, 1, 0,16, 0.00,60.00,Sunday
10,71501294.92263136
46,5188477.63148762
433,41385398.908734139
1514,71501294.92263136
2,1, 7, 1, 0,17, 0.00,60.00,Sunday
10,57839611.14966774
46,5244281.753972902
433,41385398.908734139
1514,57839611.14966774
2,1, 7, 1, 0,18, 0.00,60.00,Sunday
10,58411806.735362689
46,5302727.805227548
433,41385398.908734139
1514,58411806.735362689
2,1, 7, 1, 0,19, 0.00,60.00,Sunday
10,41544704.77761401
46,6696113.94366177
433,33399901.50135806
1514,41544704.77761401
2,1, 7, 1, 0,20, 0.00,60.00,Sunday
10,48313595.2247567
46,7571948.5851832269
433,33399901.50135806
1514,48313595.2247567
2,1, 7, 1, 0,21, 0.00,60.00,Sunday
10,52576511.92805647
46,7625873.53771374
433,33399901.50135806
1514,52576511.92805647
2,1, 7, 1, 0,22, 0.00,60.00,Sunday
10,52685588.237841088
46,7625873.53771374
433,33399901.50135806
1514,52685588.237841088
2,1, 7, 1, 0,23, 0.00,60.00,Sunday
10,52654423.57790262
46,7625873.53771374
433,33399901.50135806
1514,52654423.57790262
2,1, 7, 1, 0,24, 0.00,60.00,Sunday
10,52670005.90787184
46,7625873.53771374
433,33399901.50135806
1514,52670005.90787184
2,2, 7, 2, 0, 1, 0.00,60.00,Monday
10,76748324.091381
46,7625873.53771374
433,44533202.00181081
1514,76748324.091381
2,2, 7, 2, 0, 2, 0.00,60.00,Monday
10,61257926.40832452
46,7625873.53771374
433,44533202.00181081
1514,61257926.40832452
2,2, 7, 2, 0, 3, 0.00,60.00,Monday
10,65834925.228379938
46,7625873.53771374
433,44533202.00181081
1514,65834925.228379938
2,2, 7, 2, 0, 4, 0.00,60.00,Monday
10,66364257.09278948
46,7625873.53771374
433,44533202.00181081
1514,66364257.09278947
2,2, 7, 2, 0, 5, 0.00,60.00,Monday
10,59307718.55651492
46,7515168.819323644
433,44533202.00181081
1514,59307718.55651492
2,2, 7, 2, 0, 6, 0.00,60.00,Monday
10,74337447.63490851
46,12901070.267293236
433,44533202.00181081
1514,74337447.63490853
2,2, 7, 2, 0, 7, 0.00,60.00,Monday
10,98215250.66044975
46,10440806.917563154
433,55180531.87831209
1514,98215250.66044975
2,2, 7, 2, 0, 8, 0.00,60.00,Monday
10,257444848.66692857
46,31069636.350820137
433,95796493.41677362
1514,257444848.66692836
2,2, 7, 2, 0, 9, 0.00,60.00,Monday
10,414068614.6351129
46,93124323.85391505
433,204227663.7591696
1514,414068614.63511279
2,2, 7, 2, 0,10, 0.00,60.00,Monday
10,383321170.3307007
46,93124323.85391505
433,174055806.61631225
1514,383321170.3307007
2,2, 7, 2, 0,11, 0.00,60.00,Monday
10,378612782.713183
46,93124323.85391505
433,167093070.3525762
1514,378612782.7131829
2,2, 7, 2, 0,12, 0.00,60.00,Monday
10,394107326.4002353
46,93124323.85391505
433,174055806.61631225
1514,394107326.4002353
2,2, 7, 2, 0,13, 0.00,60.00,Monday
10,401148557.0593253
46,93124323.85391505
433,177667514.30607493
1514,401148557.0593253
2,2, 7, 2, 0,14, 0.00,60.00,Monday
10,389408244.1312583
46,93124323.85391505
433,179858086.83609239
1514,389408244.1312583
2,2, 7, 2, 0,15, 0.00,60.00,Monday
10,376358434.0669653
46,93124323.85391505
433,167093070.3525762
1514,376358434.0669652
2,2, 7, 2, 0,16, 0.00,60.00,Monday
10,376358434.0669653
46,93124323.85391505
433,167093070.3525762
1514,376358434.0669652
2,2, 7, 2, 0,17, 0.00,60.00,Monday
10,396365520.20899447
46,93124323.85391505
433,177537174.74818046
1514,396365520.20899447
2,2, 7, 2, 0,18, 0.00,60.00,Monday
10,326312881.23562946
46,52094286.95535742
433,140923939.57316477
1514,326312881.23562929
2,2, 7, 2, 0,19, 0.00,60.00,Monday
10,235938017.19907383
46,32619358.08618202
433,69106004.40578471
1514,235938017.1990737
2,2, 7, 2, 0,20, 0.00,60.00,Monday
10,239180001.20941333
46,38605020.44816999
433,59822356.054136309
1514,239180001.20941333
2,2, 7, 2, 0,21, 0.00,60.00,Monday
10,232263474.6569757
46,26303943.895732464
433,59822356.054136309
1514,232263474.6569757
2,2, 7, 2, 0,22, 0.00,60.00,Monday
10,94008775.74384517
46,26303943.895732464
433,55180531.87831209
1514,94008775.74384517
2,2, 7, 2, 0,23, 0.00,60.00,Monday
10,79727417.41547066
46,13151971.947866232
433,55180531.87831209
1514,79727417.41547066
2,2, 7, 2, 0,24, 0.00,60.00,Monday
10,75190847.24932975
46,6575985.973933116
433,55180531.87831209
1514,75190847.24932975
End of Data
 Number of Records Written=         384
