Program Version,EnergyPlus, Version 9.5.0-de239b2e5f, YMD=2021.07.22 14:16
1,5,Environment Title[],Latitude[deg],Longitude[deg],Time Zone[],Elevation[m]
2,8,Day of Simulation[],Month[],Day of Month[],DST Indicator[1=yes 0=no],Hour[],StartMinute[],EndMinute[],DayType
3,5,Cumulative Day of Simulation[],Month[],Day of Month[],DST Indicator[1=yes 0=no],DayType  ! When Daily Meters Requested
4,2,Cumulative Days of Simulation[],Month[]  ! When Monthly Meters Requested
5,1,Cumulative Days of Simulation[] ! When Run Period Meters Requested
6,1,Calendar Year of Simulation[] ! When Annual Meters Requested
10,1,Electricity:Facility [J] !Hourly
1509,1,ElectricityNet:Facility [J] !Hourly
46,1,InteriorLights:Electricity [J] !Hourly
433,1,InteriorEquipment:Electricity [J] !Hourly
End of Data Dictionary
1,ATLANTA-HARTSFIELD.JACKSON.INTL.AP_GA_USA ANN HTG 99.6% CONDNS DB,  33.63, -84.43,  -5.00, 308.00
2,1, 1,21, 0, 1, 0.00,60.00,WinterDesignDay
10,114164754.49409275
46,0.0
433,0.0
1509,114164754.49409275
2,1, 1,21, 0, 2, 0.00,60.00,WinterDesignDay
10,114186354.49409275
46,0.0
433,0.0
1509,114186354.49409275
2,1, 1,21, 0, 3, 0.00,60.00,WinterDesignDay
10,114171954.49409275
46,0.0
433,0.0
1509,114171954.49409275
2,1, 1,21, 0, 4, 0.00,60.00,WinterDesignDay
10,114171954.49409275
46,0.0
433,0.0
1509,114171954.49409275
2,1, 1,21, 0, 5, 0.00,60.00,WinterDesignDay
10,114186354.49409275
46,0.0
433,0.0
1509,114186354.49409275
2,1, 1,21, 0, 6, 0.00,60.00,WinterDesignDay
10,114157554.49409275
46,0.0
433,0.0
1509,114157554.49409275
2,1, 1,21, 0, 7, 0.00,60.00,WinterDesignDay
10,124474614.49409275
46,0.0
433,0.0
1509,124474614.49409272
2,1, 1,21, 0, 8, 0.00,60.00,WinterDesignDay
10,119812164.49409275
46,0.0
433,0.0
1509,119812164.49409272
2,1, 1,21, 0, 9, 0.00,60.00,WinterDesignDay
10,105695214.49409274
46,0.0
433,0.0
1509,105695214.49409274
2,1, 1,21, 0,10, 0.00,60.00,WinterDesignDay
10,105680814.49409274
46,0.0
433,0.0
1509,105680814.49409274
2,1, 1,21, 0,11, 0.00,60.00,WinterDesignDay
10,105680814.49409274
46,0.0
433,0.0
1509,105680814.49409274
2,1, 1,21, 0,12, 0.00,60.00,WinterDesignDay
10,105688014.49409274
46,0.0
433,0.0
1509,105688014.49409274
2,1, 1,21, 0,13, 0.00,60.00,WinterDesignDay
10,105680814.49409274
46,0.0
433,0.0
1509,105680814.49409274
2,1, 1,21, 0,14, 0.00,60.00,WinterDesignDay
10,105688014.49409274
46,0.0
433,0.0
1509,105688014.49409274
2,1, 1,21, 0,15, 0.00,60.00,WinterDesignDay
10,105680814.49409274
46,0.0
433,0.0
1509,105680814.49409274
2,1, 1,21, 0,16, 0.00,60.00,WinterDesignDay
10,105688014.49409274
46,0.0
433,0.0
1509,105688014.49409274
2,1, 1,21, 0,17, 0.00,60.00,WinterDesignDay
10,105680814.49409274
46,0.0
433,0.0
1509,105680814.49409274
2,1, 1,21, 0,18, 0.00,60.00,WinterDesignDay
10,108201534.49409274
46,0.0
433,0.0
1509,108201534.49409274
2,1, 1,21, 0,19, 0.00,60.00,WinterDesignDay
10,124611414.49409275
46,0.0
433,0.0
1509,124611414.49409272
2,1, 1,21, 0,20, 0.00,60.00,WinterDesignDay
10,116724534.49409275
46,0.0
433,0.0
1509,116724534.49409275
2,1, 1,21, 0,21, 0.00,60.00,WinterDesignDay
10,116731734.49409275
46,0.0
433,0.0
1509,116731734.49409275
2,1, 1,21, 0,22, 0.00,60.00,WinterDesignDay
10,116702934.49409275
46,0.0
433,0.0
1509,116702934.49409275
2,1, 1,21, 0,23, 0.00,60.00,WinterDesignDay
10,116731734.49409275
46,0.0
433,0.0
1509,116731734.49409275
2,1, 1,21, 0,24, 0.00,60.00,WinterDesignDay
10,116717334.49409275
46,0.0
433,0.0
1509,116717334.49409275
1,ATLANTA-HARTSFIELD.JACKSON.INTL.AP_GA_USA ANN CLG .4% CONDNS DB=>MWB,  33.63, -84.43,  -5.00, 308.00
2,1, 7,21, 0, 1, 0.00,60.00,SummerDesignDay
10,518199219.8188016
46,152517470.7542746
433,224813060.55296675
1509,518199219.8188016
2,1, 7,21, 0, 2, 0.00,60.00,SummerDesignDay
10,518266384.47874006
46,152517470.7542746
433,224813060.55296675
1509,518266384.47874006
2,1, 7,21, 0, 3, 0.00,60.00,SummerDesignDay
10,518441549.1386785
46,152517470.7542746
433,224813060.55296675
1509,518441549.1386785
2,1, 7,21, 0, 4, 0.00,60.00,SummerDesignDay
10,518417549.1386785
46,152517470.7542746
433,224813060.55296675
1509,518417549.1386785
2,1, 7,21, 0, 5, 0.00,60.00,SummerDesignDay
10,518535131.4686477
46,152517470.7542746
433,224813060.55296675
1509,518535131.4686477
2,1, 7,21, 0, 6, 0.00,60.00,SummerDesignDay
10,516490221.20686396
46,152399851.51267544
433,224813060.55296675
1509,516490221.20686396
2,1, 7,21, 0, 7, 0.00,60.00,SummerDesignDay
10,486094260.6839891
46,129457169.68001552
433,224813060.55296675
1509,486094260.6839891
2,1, 7,21, 0, 8, 0.00,60.00,SummerDesignDay
10,476923399.0868622
46,120340308.08288898
433,224813060.55296675
1509,476923399.0868622
2,1, 7,21, 0, 9, 0.00,60.00,SummerDesignDay
10,468110506.4330293
46,119991185.40467149
433,224813060.55296675
1509,468110506.4330293
2,1, 7,21, 0,10, 0.00,60.00,SummerDesignDay
10,459868736.45741429
46,119991185.40467149
433,224813060.55296675
1509,459868736.45741429
2,1, 7,21, 0,11, 0.00,60.00,SummerDesignDay
10,459868736.45741429
46,119991185.40467149
433,224813060.55296675
1509,459868736.45741429
2,1, 7,21, 0,12, 0.00,60.00,SummerDesignDay
10,459868736.45741429
46,119991185.40467149
433,224813060.55296675
1509,459868736.45741429
2,1, 7,21, 0,13, 0.00,60.00,SummerDesignDay
10,459868736.45741429
46,119991185.40467149
433,224813060.55296675
1509,459868736.45741429
2,1, 7,21, 0,14, 0.00,60.00,SummerDesignDay
10,459868736.45741429
46,119991185.40467149
433,224813060.55296675
1509,459868736.45741429
2,1, 7,21, 0,15, 0.00,60.00,SummerDesignDay
10,459892736.45741429
46,119991185.40467149
433,224813060.55296675
1509,459892736.45741429
2,1, 7,21, 0,16, 0.00,60.00,SummerDesignDay
10,459886736.45741429
46,119991185.40467149
433,224813060.55296675
1509,459886736.45741429
2,1, 7,21, 0,17, 0.00,60.00,SummerDesignDay
10,459892736.45741429
46,119991185.40467149
433,224813060.55296675
1509,459892736.45741429
2,1, 7,21, 0,18, 0.00,60.00,SummerDesignDay
10,459902992.2258166
46,120025441.17307365
433,224813060.55296675
1509,459902992.2258166
2,1, 7,21, 0,19, 0.00,60.00,SummerDesignDay
10,462145697.58519998
46,122268146.53245703
433,224813060.55296675
1509,462145697.5852
2,1, 7,21, 0,20, 0.00,60.00,SummerDesignDay
10,489987632.9410856
46,146615183.8883431
433,224813060.55296675
1509,489987632.9410856
2,1, 7,21, 0,21, 0.00,60.00,SummerDesignDay
10,503431541.807017
46,152517470.7542746
433,224813060.55296675
1509,503431541.807017
2,1, 7,21, 0,22, 0.00,60.00,SummerDesignDay
10,503431541.807017
46,152517470.7542746
433,224813060.55296675
1509,503431541.807017
2,1, 7,21, 0,23, 0.00,60.00,SummerDesignDay
10,518991831.2075862
46,152517470.7542746
433,224813060.55296675
1509,518991831.2075862
2,1, 7,21, 0,24, 0.00,60.00,SummerDesignDay
10,520490270.4989247
46,152517470.7542746
433,224813060.55296675
1509,520490270.4989247
1,RUNPERIOD 1,  33.63, -84.43,  -5.00, 308.00
2,1, 7, 1, 0, 1, 0.00,60.00,Sunday
10,59553273.75865854
46,7625873.53771374
433,33399901.50135806
1509,59553273.75865854
2,1, 7, 1, 0, 2, 0.00,60.00,Sunday
10,65553488.99041048
46,7625873.53771374
433,33399901.50135806
1509,65553488.99041048
2,1, 7, 1, 0, 3, 0.00,60.00,Sunday
10,59517273.7586585
46,7625873.53771374
433,33399901.50135806
1509,59517273.7586585
2,1, 7, 1, 0, 4, 0.00,60.00,Sunday
10,61517345.50257584
46,7625873.53771374
433,33399901.50135806
1509,61517345.50257584
2,1, 7, 1, 0, 5, 0.00,60.00,Sunday
10,63017399.3105139
46,7625873.53771374
433,33399901.50135806
1509,63017399.3105139
2,1, 7, 1, 0, 6, 0.00,60.00,Sunday
10,63681023.8071548
46,7413329.546520042
433,33399901.50135806
1509,63681023.80715481
2,1, 7, 1, 0, 7, 0.00,60.00,Sunday
10,79637713.54488652
46,5390491.487484721
433,41385398.908734139
1509,79637713.54488652
2,1, 7, 1, 0, 8, 0.00,60.00,Sunday
10,79411146.59276873
46,5204671.525274598
433,41385398.908734139
1509,79411146.59276873
2,1, 7, 1, 0, 9, 0.00,60.00,Sunday
10,81184988.41308771
46,5173573.547439724
433,41385398.908734139
1509,81184988.41308771
2,1, 7, 1, 0,10, 0.00,60.00,Sunday
10,81394988.41308771
46,5173573.547439724
433,41385398.908734139
1509,81394988.41308771
2,1, 7, 1, 0,11, 0.00,60.00,Sunday
10,81490988.41308771
46,5173573.547439724
433,41385398.908734139
1509,81490988.41308771
2,1, 7, 1, 0,12, 0.00,60.00,Sunday
10,81574988.41308771
46,5173573.547439724
433,41385398.908734139
1509,81574988.41308771
2,1, 7, 1, 0,13, 0.00,60.00,Sunday
10,81520988.41308771
46,5173573.547439724
433,41385398.908734139
1509,81520988.41308771
2,1, 7, 1, 0,14, 0.00,60.00,Sunday
10,81406988.41308771
46,5173573.547439724
433,41385398.908734139
1509,81406988.41308771
2,1, 7, 1, 0,15, 0.00,60.00,Sunday
10,81580988.41308771
46,5173573.547439724
433,41385398.908734139
1509,81580988.41308771
2,1, 7, 1, 0,16, 0.00,60.00,Sunday
10,81437525.49719756
46,5174110.6315495599
433,41385398.908734139
1509,81437525.49719756
2,1, 7, 1, 0,17, 0.00,60.00,Sunday
10,80748698.97350763
46,5231083.3268135399
433,41385398.908734139
1509,80748698.97350763
2,1, 7, 1, 0,18, 0.00,60.00,Sunday
10,80041933.2412988
46,5282558.564327782
433,41385398.908734139
1509,80041933.24129878
2,1, 7, 1, 0,19, 0.00,60.00,Sunday
10,71616393.89520212
46,6361416.235084032
433,33399901.50135806
1509,71616393.8952021
2,1, 7, 1, 0,20, 0.00,60.00,Sunday
10,68649555.83559314
46,7515599.885422203
433,33399901.50135806
1509,68649555.83559314
2,1, 7, 1, 0,21, 0.00,60.00,Sunday
10,66598815.18247249
46,7625873.53771374
433,33399901.50135806
1509,66598815.18247249
2,1, 7, 1, 0,22, 0.00,60.00,Sunday
10,66562815.18247255
46,7625873.53771374
433,33399901.50135806
1509,66562815.18247255
2,1, 7, 1, 0,23, 0.00,60.00,Sunday
10,63122689.63061721
46,7625873.53771374
433,33399901.50135806
1509,63122689.63061721
2,1, 7, 1, 0,24, 0.00,60.00,Sunday
10,62062653.75865856
46,7625873.53771374
433,33399901.50135806
1509,62062653.75865856
2,2, 7, 2, 0, 1, 0.00,60.00,Monday
10,88523202.01838786
46,7625873.53771374
433,44533202.00181081
1509,88523202.01838786
2,2, 7, 2, 0, 2, 0.00,60.00,Monday
10,73162663.93900784
46,7625873.53771374
433,44533202.00181081
1509,73162663.93900784
2,2, 7, 2, 0, 3, 0.00,60.00,Monday
10,76150771.55488386
46,7625873.53771374
433,44533202.00181081
1509,76150771.55488386
2,2, 7, 2, 0, 4, 0.00,60.00,Monday
10,75186735.68292515
46,7625873.53771374
433,44533202.00181081
1509,75186735.68292515
2,2, 7, 2, 0, 5, 0.00,60.00,Monday
10,72198628.06704913
46,7625873.53771374
433,44533202.00181081
1509,72198628.06704913
2,2, 7, 2, 0, 6, 0.00,60.00,Monday
10,79286634.22063902
46,15251747.07542748
433,44533202.00181081
1509,79286634.22063902
2,2, 7, 2, 0, 7, 0.00,60.00,Monday
10,98547297.25627606
46,12081689.219203884
433,55180531.87831209
1509,98547297.25627606
2,2, 7, 2, 0, 8, 0.00,60.00,Monday
10,255715862.81104366
46,31130404.104440474
433,95796493.41677362
1509,255715862.81104366
2,2, 7, 2, 0, 9, 0.00,60.00,Monday
10,429032018.0640903
46,93124323.85391505
433,204227663.7591696
1509,429032018.0640903
2,2, 7, 2, 0,10, 0.00,60.00,Monday
10,398908160.92123386
46,93124323.85391505
433,174055806.61631225
1509,398908160.92123386
2,2, 7, 2, 0,11, 0.00,60.00,Monday
10,391945424.65749737
46,93124323.85391505
433,167093070.3525762
1509,391945424.6574972
2,2, 7, 2, 0,12, 0.00,60.00,Monday
10,398788160.92123386
46,93124323.85391505
433,174055806.61631225
1509,398788160.92123386
2,2, 7, 2, 0,13, 0.00,60.00,Monday
10,400793514.61587318
46,93124323.85391505
433,177667514.30607493
1509,400793514.61587318
2,2, 7, 2, 0,14, 0.00,60.00,Monday
10,388046901.18978378
46,93124323.85391505
433,179858086.83609239
1509,388046901.18978378
2,2, 7, 2, 0,15, 0.00,60.00,Monday
10,375281884.70626738
46,93124323.85391505
433,167093070.3525762
1509,375281884.70626738
2,2, 7, 2, 0,16, 0.00,60.00,Monday
10,375281884.70626738
46,93124323.85391505
433,167093070.3525762
1509,375281884.70626738
2,2, 7, 2, 0,17, 0.00,60.00,Monday
10,385725989.1018714
46,93124323.85391505
433,177537174.74818046
1509,385725989.1018714
2,2, 7, 2, 0,18, 0.00,60.00,Monday
10,309096220.979353
46,51749162.5771431
433,140923939.57316477
1509,309096220.979353
2,2, 7, 2, 0,19, 0.00,60.00,Monday
10,232358649.64930154
46,31518614.792510638
433,69106004.40578471
1509,232358649.64930154
2,2, 7, 2, 0,20, 0.00,60.00,Monday
10,230957881.00909896
46,37382529.66235644
433,59822356.054136309
1509,230957881.00909896
2,2, 7, 2, 0,21, 0.00,60.00,Monday
10,229143910.60272167
46,26303943.895732464
433,59822356.054136309
1509,229143910.60272167
2,2, 7, 2, 0,22, 0.00,60.00,Monday
10,114627474.75103033
46,26303943.895732464
433,55180531.87831209
1509,114627474.75103033
2,2, 7, 2, 0,23, 0.00,60.00,Monday
10,108272046.17700044
46,13151971.947866232
433,55180531.87831209
1509,108272046.17700044
2,2, 7, 2, 0,24, 0.00,60.00,Monday
10,95389844.97131522
46,6575985.973933116
433,55180531.87831209
1509,95389844.97131522
End of Data
 Number of Records Written=         384
