Program Version,EnergyPlus, Version 9.5.0-de239b2e5f, YMD=2021.07.26 22:26
1,5,Environment Title[],Latitude[deg],Longitude[deg],Time Zone[],Elevation[m]
2,8,Day of Simulation[],Month[],Day of Month[],DST Indicator[1=yes 0=no],Hour[],StartMinute[],EndMinute[],DayType
3,5,Cumulative Day of Simulation[],Month[],Day of Month[],DST Indicator[1=yes 0=no],DayType  ! When Daily Report Variables Requested
4,2,Cumulative Days of Simulation[],Month[]  ! When Monthly Report Variables Requested
5,1,Cumulative Days of Simulation[] ! When Run Period Report Variables Requested
6,1,Calendar Year of Simulation[] ! When Annual Report Variables Requested
7,1,Environment,Site Outdoor Air Drybulb Temperature [C] !Hourly
652,1,PERIMETER_BOT_ZN_1_FLOOR,CondFD Phase Change Node Temperature 1 [C] !Hourly
653,1,PERIMETER_BOT_ZN_1_FLOOR,CondFD Phase Change State 3 [] !Hourly
654,1,PERIMETER_BOT_ZN_1_FLOOR,CondFD Phase Change Node Temperature 3 [C] !Hourly
655,1,PERIMETER_BOT_ZN_1_FLOOR,CondFD Phase Change Node Temperature 10 [C] !Hourly
656,1,PERIMETER_BOT_ZN_1_FLOOR,CondFD Phase Change Node Temperature 15 [C] !Hourly
657,1,PERIMETER_BOT_ZN_1,Zone Mean Air Temperature [C] !Hourly
1722,1,PERI1_TOP_LOTEMP,Zone Radiant HVAC Cooling Rate [W] !Hourly
1725,1,PERI1_TOP_LOTEMP,Zone Radiant HVAC Mass Flow Rate [kg/s] !Hourly
1726,1,PERI1_TOP_LOTEMP,Zone Radiant HVAC Injection Mass Flow Rate [kg/s] !Hourly
1727,1,PERI1_TOP_LOTEMP,Zone Radiant HVAC Recirculation Mass Flow Rate [kg/s] !Hourly
1728,1,PERI1_TOP_LOTEMP,Zone Radiant HVAC Inlet Temperature [C] !Hourly
1729,1,PERI1_TOP_LOTEMP,Zone Radiant HVAC Outlet Temperature [C] !Hourly
1735,1,PERI2_TOP_LOTEMP,Zone Radiant HVAC Outlet Temperature [C] !Hourly
1957,1,PERI1_TOP_LOTEMP_CHW_INLET,System Node Temperature [C] !Hourly
1958,1,PERI1_TOP_LOTEMP_CHW_OUTLET,System Node Temperature [C] !Hourly
End of Data Dictionary
1,ATLANTA-HARTSFIELD.JACKSON.INTL.AP_GA_USA ANN HTG 99.6% CONDNS DB,  41.98, -87.92,  -6.00, 201.00
2,1, 1,21, 0, 1, 0.00,60.00,WinterDesignDay
7,-6.300000000000007
652,20.51999999999999
654,20.513950157758044
655,20.36745811653959
656,19.722906041745817
657,16.01179760928051
653,0.0
1722,0.0
1725,0.13440835600000004
1726,0.021951281672373519
1727,0.11245707432762647
1728,30.07823952205666
1729,27.53981720824468
1735,40.804980869886467
1957,12.928730742575672
1958,12.928730742575672
2,1, 1,21, 0, 2, 0.00,60.00,WinterDesignDay
7,-6.300000000000007
652,20.51999999999999
654,20.51398002118261
655,20.366756573917148
656,19.720394717203435
657,16.011216363367024
653,0.0
1722,0.0
1725,0.1612900272
1726,0.026354498108305464
1727,0.13493552909169455
1728,30.081370679222567
1729,27.033686406826019
1735,40.80429359753173
1957,12.928730742575672
1958,12.928730742575672
2,1, 1,21, 0, 3, 0.00,60.00,WinterDesignDay
7,-6.300000000000007
652,20.51999999999999
654,20.51398537789531
655,20.366591263914054
656,19.719337993860067
657,16.01014108109535
653,0.0
1722,0.0
1725,0.15232947013333335
1726,0.024926110700224208
1727,0.12740335943310916
1728,30.078042280020179
1729,27.195001415801884
1735,40.80367110066474
1957,12.928730742575672
1958,12.928730742575672
2,1, 1,21, 0, 4, 0.00,60.00,WinterDesignDay
7,-6.300000000000007
652,20.51999999999999
654,20.513982044922899
655,20.36598390651644
656,19.715092854074464
657,16.011731425829895
653,0.0
1722,0.0
1725,0.1433689130666667
1726,0.02343596162758268
1727,0.11993295143908399
1728,30.086665563094646
1729,27.376648145173748
1735,40.803105823294448
1957,12.928730742575672
1958,12.928730742575672
2,1, 1,21, 0, 5, 0.00,60.00,WinterDesignDay
7,-6.300000000000007
652,20.51999999999999
654,20.51396865027429
655,20.365563451377633
656,19.713494188826404
657,16.009765127113448
653,0.0
1722,0.0
1725,0.1612900272
1726,0.026386031700711189
1727,0.1349039954992888
1728,30.083593854831958
1729,27.031937212094094
1735,40.80259147129792
1957,12.928730742575672
1958,12.928730742575672
2,1, 1,21, 0, 6, 0.00,60.00,WinterDesignDay
7,-6.300000000000007
652,20.51999999999999
654,20.51395449601272
655,20.365176816637079
656,19.711832595591877
657,16.011929450715706
653,0.0
1722,0.0
1725,0.13440835600000004
1726,0.021989535541081984
1727,0.112418820458918
1728,30.086353297299593
1729,27.543161286546483
1735,40.802122627399047
1957,12.928730742575672
1958,12.928730742575672
2,1, 1,21, 0, 7, 0.00,60.00,WinterDesignDay
7,-6.300000000000007
652,20.51999999999999
654,20.51391079420186
655,20.34540118751305
656,19.45506813310508
657,16.047146424481484
653,0.0
1722,0.0
1725,0.017921114133333337
1726,0.003044077660311693
1727,0.01487703647302164
1728,30.059045967513297
1729,29.703806942862138
1735,40.813527733184859
1957,12.928730742575672
1958,12.928730742575672
2,1, 1,21, 0, 8, 0.00,60.00,WinterDesignDay
7,-6.300000000000007
652,20.51999999999999
654,20.513208177243656
655,20.287920478402979
656,19.235922339532018
657,16.025168701885474
653,0.0
1722,0.0
1725,0.07168445653333335
1726,0.012112634271520586
1727,0.05957182226181276
1728,30.032575646912645
1729,28.62131021955998
1735,40.82154569979519
1957,12.928730742575672
1958,12.928730742575672
2,1, 1,21, 0, 9, 0.00,60.00,WinterDesignDay
7,-6.300000000000007
652,20.51999999999999
654,20.51201289955088
655,20.27797402612508
656,19.23821283414741
657,16.023433158037798
653,0.0
1722,0.0
1725,0.07168445653333335
1726,0.012111834814918279
1727,0.05957262171841506
1728,30.03682057844537
1729,28.625769405618394
1735,40.82370871292209
1957,12.928730742575672
1958,12.928730742575672
2,1, 1,21, 0,10, 0.00,60.00,WinterDesignDay
7,-6.300000000000007
652,20.51999999999999
654,20.511255180097945
655,20.27712409580955
656,19.245721193592485
657,16.024406497262097
653,0.0
1722,0.0
1725,0.07168445653333335
1726,0.01209039343384217
1727,0.059594063099491178
1728,30.02505224927551
1729,28.616632572467425
1735,40.82495951067003
1957,12.928730742575672
1958,12.928730742575672
2,1, 1,21, 0,11, 0.00,60.00,WinterDesignDay
7,-6.300000000000007
652,20.51999999999999
654,20.510864779854836
655,20.277220122001009
656,19.249845149643745
657,16.02349483041819
653,0.0
1722,0.0
1725,0.07168445653333335
1726,0.012097696774858886
1727,0.05958675975847445
1728,30.032561888084787
1729,28.623357760451673
1735,40.82588426843151
1957,12.928730742575672
1958,12.928730742575672
2,1, 1,21, 0,12, 0.00,60.00,WinterDesignDay
7,-6.300000000000007
652,20.51999999999999
654,20.510671083081048
655,20.27718559476501
656,19.251492653899246
657,16.022003715132528
653,0.0
1722,0.0
1725,0.07168445653333335
1726,0.0121136563467657
1727,0.059570800186567639
1728,30.047388562358028
1729,28.636366492240318
1735,40.826656463164699
1957,12.928730742575672
1958,12.928730742575672
2,1, 1,21, 0,13, 0.00,60.00,WinterDesignDay
7,-6.300000000000007
652,20.51999999999999
654,20.51057387844092
655,20.2771411538071
656,19.252275266765634
657,16.0204638144003
653,0.0
1722,0.0
1725,0.07168445653333335
1726,0.01213087296480639
1727,0.05955358356852695
1728,30.063175320656645
1729,28.65017818608704
1735,40.827332421067179
1957,12.928730742575672
1958,12.928730742575672
2,1, 1,21, 0,14, 0.00,60.00,WinterDesignDay
7,-6.300000000000007
652,20.51999999999999
654,20.510526207757335
655,20.277650881415025
656,19.258476881057186
657,16.02263785877831
653,0.0
1722,0.0
1725,0.07168445653333335
1726,0.012089487813151829
1727,0.05959496872018151
1728,30.037711992180033
1729,28.62967766196812
1735,40.82793387714506
1957,12.928730742575672
1958,12.928730742575672
2,1, 1,21, 0,15, 0.00,60.00,WinterDesignDay
7,-6.300000000000007
652,20.51999999999999
654,20.510515802117888
655,20.278497442285489
656,19.261793286321735
657,16.02153587297381
653,0.0
1722,0.0
1725,0.07168445653333335
1726,0.01210155394106124
1727,0.05958290259227209
1728,30.04334750971632
1729,28.633926234623343
1735,40.82847203109012
1957,12.928730742575672
1958,12.928730742575672
2,1, 1,21, 0,16, 0.00,60.00,WinterDesignDay
7,-6.300000000000007
652,20.51999999999999
654,20.510524010870765
655,20.278884241346256
656,19.263714105827068
657,16.021565136280846
653,0.0
1722,0.0
1725,0.07168445653333335
1726,0.012088665404617829
1727,0.05959579112871551
1728,30.03717762515115
1729,28.62931253290197
1735,40.82895449228627
1957,12.928730742575672
1958,12.928730742575672
2,1, 1,21, 0,17, 0.00,60.00,WinterDesignDay
7,-6.300000000000007
652,20.51999999999999
654,20.510537180549919
655,20.279466827139339
656,19.26553351748993
657,16.02090523122481
653,0.0
1722,0.0
1725,0.08960557066666668
1726,0.015121085660380172
1727,0.0744844850062865
1728,30.049017637024808
1729,28.288024890258059
1735,40.829387432126107
1957,12.928730742575672
1958,12.928730742575672
2,1, 1,21, 0,18, 0.00,60.00,WinterDesignDay
7,-6.300000000000007
652,20.51999999999999
654,20.510551880948048
655,20.27950607115033
656,19.266521257195639
657,16.021929657205417
653,0.0
1722,0.0
1725,0.07168445653333335
1726,0.012093615487709183
1727,0.059590841045624159
1728,30.042752531272009
1729,28.634370591080225
1735,40.82977615135549
1957,12.928730742575672
1958,12.928730742575672
2,1, 1,21, 0,19, 0.00,60.00,WinterDesignDay
7,-6.300000000000007
652,20.51999999999999
654,20.510607847545307
655,20.30492507597825
656,19.56380430643084
657,16.007114477593708
653,0.0
1722,0.0
1725,0.20609281253333326
1726,0.03384581150615764
1727,0.1722470010271757
1728,30.102902439157267
1729,26.19205067870105
1735,40.818249416039957
1957,12.928730742575672
1958,12.928730742575672
2,1, 1,21, 0,20, 0.00,60.00,WinterDesignDay
7,-6.300000000000007
652,20.51999999999999
654,20.511400408545116
655,20.358444665004883
656,19.743042189653115
657,16.011081343933435
653,0.0
1722,0.0
1725,0.17025058426666665
1726,0.027746393938334784
1727,0.1425041903283319
1728,30.07742214449398
1729,26.870510117464837
1735,40.8101449410855
1957,12.928730742575672
1958,12.928730742575672
2,1, 1,21, 0,21, 0.00,60.00,WinterDesignDay
7,-6.300000000000007
652,20.51999999999999
654,20.512573421775117
655,20.36796591153778
656,19.74531049129401
657,16.010389829710375
653,0.0
1722,0.0
1725,0.1612900272
1726,0.02629561241524125
1727,0.1349944147847587
1728,30.06943827770938
1729,27.02928632663843
1735,40.807907641090327
1957,12.928730742575672
1958,12.928730742575672
2,1, 1,21, 0,22, 0.00,60.00,WinterDesignDay
7,-6.300000000000007
652,20.51999999999999
654,20.51330769343518
655,20.36832126035178
656,19.736432263847609
657,16.01059663755496
653,0.0
1722,0.0
1725,0.1433689130666667
1726,0.023430114288085635
1727,0.11993879877858106
1728,30.07940273968086
1729,27.36994245125273
1735,40.806585804947179
1957,12.928730742575672
1958,12.928730742575672
2,1, 1,21, 0,23, 0.00,60.00,WinterDesignDay
7,-6.300000000000007
652,20.51999999999999
654,20.513681323559607
655,20.368385231398006
656,19.73332011618317
657,16.012202661059584
653,0.0
1722,0.0
1725,0.15232947013333335
1726,0.024833860272948147
1727,0.1274956098603852
1728,30.068847798974639
1729,27.19784369811281
1735,40.80559106842716
1957,12.928730742575672
1958,12.928730742575672
2,1, 1,21, 0,24, 0.00,60.00,WinterDesignDay
7,-6.300000000000007
652,20.51999999999999
654,20.51386762730988
655,20.368081934286367
656,19.727996856186395
657,16.00988804791347
653,0.0
1722,0.0
1725,0.1612900272
1726,0.026349189982362337
1727,0.13494083721763765
1728,30.077337528794524
1729,27.030457639200426
1735,40.80474983264396
1957,12.928730742575672
1958,12.928730742575672
1,ATLANTA-HARTSFIELD.JACKSON.INTL.AP_GA_USA ANN CLG .4% CONDNS DB=>MWB,  41.98, -87.92,  -6.00, 201.00
2,1, 7,21, 0, 1, 0.00,60.00,SummerDesignDay
7,26.32025
652,23.450000000000029
654,23.37975067355394
655,21.663645753559157
656,14.151506049006596
657,20.475808309187099
653,0.0
1722,9340.755471835111
1725,0.5467642243600003
1726,0.3163311380031315
1727,0.23043308635686844
1728,9.934446728781076
1729,14.010639366068953
1735,28.994686277577967
1957,6.8834496140372709
1958,11.006772148748813
2,1, 7,21, 0, 2, 0.00,60.00,SummerDesignDay
7,25.84683333333334
652,23.450000000000029
654,23.3798783783513
655,21.670038077144615
656,14.181071070888099
657,20.34088913691408
653,0.0
1722,9140.03873609675
1725,0.5467642243600003
1726,0.3190352983357329
1727,0.22772892602426704
1728,10.047615199313603
1729,14.036359394845901
1735,29.031338058257448
1957,7.119586882741275
1958,11.155462650193849
2,1, 7,21, 0, 3, 0.00,60.00,SummerDesignDay
7,25.515125
652,23.450000000000029
654,23.380058394218748
655,21.67434872234273
656,14.199515876678899
657,20.23258811894544
653,0.0
1722,8969.317244365595
1725,0.5467642243600003
1726,0.3200478197169431
1727,0.2267164046430569
1728,10.138127300411194
1729,14.052469549661259
1735,29.08830265435502
1957,7.284739011941207
1958,11.246214054726038
2,1, 7,21, 0, 4, 0.00,60.00,SummerDesignDay
7,25.230124999999995
652,23.450000000000029
654,23.38022630658928
655,21.6772496234065
656,14.211802040463884
657,20.139274146456523
653,0.0
1722,8816.103498069562
1725,0.5467642243600003
1726,0.32082051637524247
1727,0.22594370798475758
1728,10.21604571396029
1729,14.063609092173382
1735,29.14804994222266
1957,7.425962837837838
1958,11.320660061187493
2,1, 7,21, 0, 5, 0.00,60.00,SummerDesignDay
7,24.993416666666673
652,23.450000000000029
654,23.380363308296539
655,21.679346517841485
656,14.22095984233576
657,20.061339047228658
653,0.0
1722,8686.088206095228
1725,0.5467642243600003
1726,0.321447492522093
1727,0.22531673183790697
1728,10.281425160615454
1729,14.072317709697677
1735,29.162628153560126
1957,7.544027675604871
1958,11.382054952193416
2,1, 7,21, 0, 6, 0.00,60.00,SummerDesignDay
7,24.996583333333335
652,23.450000000000029
654,23.38047054577686
655,21.680759345683346
656,14.224575138750794
657,20.018648876526649
653,0.0
1722,8602.543070300917
1725,0.5467642243600003
1726,0.3184843605244818
1727,0.22827986383551839
1728,10.317727543142688
1729,14.072197319576612
1735,29.95877206918981
1957,7.545573915632699
1958,11.347178909607488
2,1, 7,21, 0, 7, 0.00,60.00,SummerDesignDay
7,25.42804166666666
652,23.450000000000029
654,23.380541590657779
655,21.678614949196978
656,14.19062538700165
657,20.52410497792847
653,0.0
1722,9407.70738033533
1725,0.5467642243600003
1726,0.3400630959173455
1727,0.20670112844265454
1728,9.9060090980256
1729,14.011370144360344
1735,30.041618266609946
1957,7.335703317964298
1958,11.488193752730684
2,1, 7,21, 0, 8, 0.00,60.00,SummerDesignDay
7,26.575958333333334
652,23.450000000000029
654,23.380482005231398
655,21.666151273479426
656,14.110878893882271
657,20.88664635672671
653,0.0
1722,9932.951465038495
1725,0.5467642243600003
1726,0.33777393073625408
1727,0.20899029362374597
1728,9.599723059906589
1729,13.933856626753658
1735,30.041618266609946
1957,6.840959799294429
1958,11.222217994510097
2,1, 7,21, 0, 9, 0.00,60.00,SummerDesignDay
7,28.287541666666664
652,23.450000000000029
654,23.380206360287344
655,21.65382935856098
656,14.049584124904328
657,21.43769218434273
653,0.0
1722,10837.360643698832
1725,0.5467642243600003
1726,0.36399140296160389
1727,0.18277282139839638
1728,9.145536671888925
1729,13.873574604926196
1735,30.041618266609946
1957,6.699999999999995
1958,11.475155413844947
2,1, 7,21, 0,10, 0.00,60.00,SummerDesignDay
7,29.995958333333328
652,23.450000000000029
654,23.379833240655889
655,21.64242871456603
656,13.987905658112578
657,22.319956143185459
653,0.0
1722,12367.72282749917
1725,0.5467642243600003
1726,0.4186281674842769
1727,0.12813605687572314
1728,8.41349948454234
1729,13.807867069897125
1735,30.041618266609946
1957,6.699999999999993
1958,12.141473550372606
2,1, 7,21, 0,11, 0.00,60.00,SummerDesignDay
7,31.514374999999995
652,23.450000000000029
654,23.379418711219328
655,21.63069449737711
656,13.938746654849746
657,23.286500247645774
653,0.0
1722,13564.724639375574
1725,0.5467642243600003
1726,0.5156923004022397
1727,0.03107192395776058
1728,7.872867347937318
1729,13.788273841226119
1735,30.041618266609946
1957,7.404055853461642
1958,13.393043037754385
2,1, 7,21, 0,12, 0.00,60.00,SummerDesignDay
7,32.697916666666667
652,23.450000000000029
654,23.379050963983933
655,21.642322798151825
656,14.11857173539835
657,24.181928509478504
653,0.0
1722,13513.892542790372
1725,0.5467642243600003
1726,0.5467642243600003
1727,0.0
1728,8.1775613403776
1729,14.071402173268185
1735,30.041618266609946
1957,8.096427390838177
1958,14.071402173268185
2,1, 7,21, 0,13, 0.00,60.00,SummerDesignDay
7,33.55133333333333
652,23.450000000000029
654,23.379327011915757
655,21.699582344629666
656,14.50774525643076
657,24.85855464193527
653,0.0
1722,13517.684601809351
1725,0.5467642243600003
1726,0.5467642243600003
1727,0.0
1728,8.604598678471648
1729,14.50093389754564
1735,30.041618266609946
1957,8.523455027695416
1958,14.50093389754564
2,1, 7,21, 0,14, 0.00,60.00,SummerDesignDay
7,34.16645833333333
652,23.450000000000029
654,23.38068749220103
655,21.775186741851046
656,14.919580609673407
657,25.20414955523606
653,0.0
1722,13509.685659890109
1725,0.5467642243600003
1726,0.5467642243600003
1727,0.0
1728,9.004898535530242
1729,14.898532352119505
1735,30.041618266609946
1957,8.923783653398403
1958,14.898532352119505
2,1, 7,21, 0,15, 0.00,60.00,SummerDesignDay
7,34.40000000000004
652,23.450000000000029
654,23.38281895355356
655,21.84075898938342
656,15.21112679599205
657,25.153440430611569
653,0.0
1722,13493.857067534698
1725,0.5467642243600003
1726,0.5467642243600003
1727,0.0
1728,9.247376049212459
1729,15.134581314257384
1735,30.041618266609946
1957,9.166325285668505
1958,15.134581314257384
2,1, 7,21, 0,16, 0.00,60.00,SummerDesignDay
7,34.110250000000018
652,23.450000000000029
654,23.385038816061586
655,21.875575281815114
656,15.297514357969077
657,24.714499588802867
653,0.0
1722,13476.64661372669
1725,0.5467642243600003
1726,0.5467642243600003
1727,0.0
1728,9.266964376036102
1729,15.14669944067909
1735,30.041618266609946
1957,9.185989667402437
1958,15.14669944067909
2,1, 7,21, 0,17, 0.00,60.00,SummerDesignDay
7,33.44366666666667
652,23.450000000000029
654,23.386654132843924
655,21.87168642926286
656,15.174923834554216
657,24.05847179038614
653,0.0
1722,13464.404797167472
1725,0.5467642243600003
1726,0.5467642243600003
1727,0.0
1728,9.0846445001216
1729,14.958680924990493
1735,30.041618266609946
1957,9.003714061704314
1958,14.958680924990493
2,1, 7,21, 0,18, 0.00,60.00,SummerDesignDay
7,32.58708333333333
652,23.450000000000029
654,23.387228688682908
655,21.834885319884149
656,14.902629429104833
657,23.40146888215604
653,0.0
1722,13456.73974542547
1725,0.5467642243600003
1726,0.5467642243600003
1727,0.0
1728,8.77273406429709
1729,14.642815075654957
1735,30.041618266609946
1957,8.691824898218558
1958,14.642815075654957
2,1, 7,21, 0,19, 0.00,60.00,SummerDesignDay
7,31.395624999999997
652,23.450000000000029
654,23.386686587281387
655,21.775222038135416
656,14.531297047991318
657,22.73714336454024
653,0.0
1722,13431.53129203194
1725,0.5467642243600003
1726,0.5447318860024072
1727,0.0020323383575931517
1728,8.383139270101666
1729,14.24146207784904
1735,30.041618266609946
1957,8.279851929023785
1958,14.218937438807469
2,1, 7,21, 0,20, 0.00,60.00,SummerDesignDay
7,30.16379166666667
652,23.450000000000029
654,23.385178298439734
655,21.705715044455606
656,14.183444022446162
657,22.17915263482025
653,0.0
1722,12470.063569567685
1725,0.5467642243600003
1726,0.4224449721776811
1727,0.12431925218231906
1728,8.510587982423689
1729,13.949779698016283
1735,30.041618266609946
1957,6.824951236992513
1958,12.318744032301316
2,1, 7,21, 0,21, 0.00,60.00,SummerDesignDay
7,29.215374999999999
652,23.450000000000029
654,23.38317003412673
655,21.662879451578058
656,14.04281685934159
657,21.76555365749191
653,0.0
1722,11477.841363126858
1725,0.5467642243600003
1726,0.3857091432615475
1727,0.1610550810984526
1728,8.857309745167923
1729,13.864297198460497
1735,30.041618266609946
1957,6.699999999999993
1958,11.754100399054444
2,1, 7,21, 0,22, 0.00,60.00,SummerDesignDay
7,28.360375
652,23.450000000000029
654,23.3814646738692
655,21.64731565408172
656,14.0100930534
657,21.47825168605376
653,0.0
1722,10895.021880781562
1725,0.5467642243600003
1726,0.36701727548383036
1727,0.17974694887616977
1728,9.09804939187721
1729,13.8511764050377
1735,30.041618266609946
1957,6.699999999999993
1958,11.500243746569267
2,1, 7,21, 0,23, 0.00,60.00,SummerDesignDay
7,27.60195833333334
652,23.450000000000029
654,23.380364509557578
655,21.644865321626914
656,14.036969500951337
657,20.913842945579956
653,0.0
1722,9951.97122357623
1725,0.5467642243600003
1726,0.3331075060302343
1727,0.21365671832976577
1728,9.563289164702363
1729,13.905666688142642
1735,28.599832638906727
1957,6.699999999999993
1958,11.089501578385399
2,1, 7,21, 0,24, 0.00,60.00,SummerDesignDay
7,26.936958333333334
652,23.450000000000029
654,23.379829003640663
655,21.654532923691215
656,14.10734352840821
657,20.657803494828909
653,0.0
1722,9600.083617979632
1725,0.5467642243600003
1726,0.3186431498225802
1727,0.22812107453741974
1728,9.782720257041023
1729,13.971868229567207
1735,28.69670499942322
1957,6.7027041521533159
1958,10.938979633503527
1,RUNPERIOD 1,  41.98, -87.92,  -6.00, 201.00
2,1, 7, 1, 0, 1, 0.00,60.00,Sunday
7,17.098333333333334
652,23.450000000000029
654,23.38708312976282
655,21.869525857716807
656,15.248787406296506
657,18.001419985846
653,0.0
1722,4127.856163607505
1725,0.3189457975433335
1726,0.27546086354201468
1727,0.04348493400131867
1728,11.996863799057682
1729,13.799279818766229
1735,11.971615937652049
1957,11.453452729444765
1958,13.283377510288288
2,1, 7, 1, 0, 2, 0.00,60.00,Sunday
7,16.8475
652,23.450000000000029
654,23.387626042292039
655,21.88636117486757
656,15.348335499188222
657,18.000007584113903
653,0.0
1722,3770.3688747917597
1725,0.2824948492526668
1726,0.2533702634578694
1727,0.029124585794797304
1728,11.997533549540698
1729,13.643854178120716
1735,11.971615937652049
1957,11.575054697197448
1958,13.245740233846345
2,1, 7, 1, 0, 3, 0.00,60.00,Sunday
7,16.5475
652,23.450000000000029
654,23.388241063592827
655,21.90542047029446
656,15.44930584446624
657,17.999251330571508
653,0.0
1722,3506.461292508375
1725,0.25515663803466678
1726,0.23881683972695764
1727,0.016339798307709067
1728,11.997738149192092
1729,13.528824378020813
1735,11.971615937652049
1957,11.72282113911187
1958,13.275914382834879
2,1, 7, 1, 0, 4, 0.00,60.00,Sunday
7,16.2475
652,23.450000000000029
654,23.3889234264652
655,21.925089299113087
656,15.5554299289031
657,17.99963573491892
653,0.0
1722,3753.9537653068134
1725,0.26426937510733347
1726,0.25839233246420537
1727,0.0058770426431279869
1728,11.997375110019643
1729,13.63652817227229
1735,11.971615937652049
1957,11.871038448314799
1958,13.532984489612004
2,1, 7, 1, 0, 5, 0.00,60.00,Sunday
7,16.100000000000017
652,23.450000000000029
654,23.389650820356445
655,21.94272066960118
656,15.61234544621133
657,18.00108701745902
653,0.0
1722,4385.994159794417
1725,0.30983306047066686
1726,0.3098312626783609
1727,0.0000017977923058983455
1728,11.999397051367393
1729,13.91453027664081
1735,11.971615937652049
1957,11.952181200125207
1958,13.894037222109074
2,1, 7, 1, 0, 6, 0.00,60.00,Sunday
7,16.100000000000017
652,23.450000000000029
654,23.390240299209187
655,21.930082518693337
656,15.44343942003847
657,18.003981624300445
653,0.0
1722,5197.571795944586
1725,0.39184769412466688
1726,0.39184596783031708
1727,0.0000017262943498334386
1728,11.999429272677647
1729,14.268935849976576
1735,11.971615937652049
1957,11.952252252252262
1958,14.255555300163242
2,1, 7, 1, 0, 7, 0.00,60.00,Sunday
7,16.100000000000017
652,23.450000000000029
654,23.390105156109539
655,21.87663175273341
656,15.057888964297252
657,18.101414855424719
653,0.0
1722,6370.842485403482
1725,0.5467642243600003
1726,0.5467642243600003
1727,0.0
1728,11.999409074985615
1729,14.78122132070326
1735,11.971615937652049
1957,11.95225225225226
1958,14.78122132070326
2,1, 7, 1, 0, 8, 0.00,60.00,Sunday
7,16.405
652,23.450000000000029
654,23.38887973550991
655,21.812274995388966
656,14.771102274806914
657,18.26660459339546
653,0.0
1722,6206.735861405865
1725,0.5467642243600003
1726,0.5467642243600003
1727,0.0
1728,11.853187994300534
1729,14.563229082840439
1735,11.971615937652049
1957,11.806033019941623
1958,14.563229082840439
2,1, 7, 1, 0, 9, 0.00,60.00,Sunday
7,16.954166666666663
652,23.450000000000029
654,23.387147574715447
655,21.773870215484889
656,14.613113051934429
657,18.558960640138304
653,0.0
1722,6525.461372286492
1725,0.5467642243600003
1726,0.5467642243600003
1727,0.0
1728,11.580305362777608
1729,14.429288584360867
1735,13.183580713204002
1957,11.533153655835554
1958,14.429288584360867
2,1, 7, 1, 0,10, 0.00,60.00,Sunday
7,17.505
652,23.450000000000029
654,23.385593347938376
655,21.750135511480857
656,14.52093177079609
657,18.92364489564682
653,0.0
1722,6969.84877145607
1725,0.5467642243600003
1726,0.5467642243600003
1727,0.0
1728,11.308175636949756
1729,14.350938260901911
1735,13.990915858789759
1957,11.261028025846125
1958,14.350938260901911
2,1, 7, 1, 0,11, 0.00,60.00,Sunday
7,18.054166666666668
652,23.450000000000029
654,23.384392446312178
655,21.734933680452156
656,14.461318294776313
657,19.317575692299209
653,0.0
1722,7476.685526994993
1725,0.5467642243600003
1726,0.5467642243600003
1727,0.0
1728,11.035251783543203
1729,14.29902483522561
1735,14.403582510454014
1957,10.988108610790512
1958,14.29902483522561
2,1, 7, 1, 0,12, 0.00,60.00,Sunday
7,18.29999999999998
652,23.450000000000029
654,23.383518992958224
655,21.725314046946843
656,14.430034339543138
657,19.604021288225519
653,0.0
1722,7723.485585798682
1725,0.5467642243600003
1726,0.5467642243600003
1727,0.0
1728,10.909342141398503
1729,14.280729715823267
1735,14.518696477152599
1957,10.862202213111706
1958,14.280729715823267
2,1, 7, 1, 0,13, 0.00,60.00,Sunday
7,18.605000000000005
652,23.450000000000029
654,23.38292711918958
655,21.72321575088852
656,14.437643128936563
657,19.842490515626005
653,0.0
1722,8076.516744163156
1725,0.5467642243600003
1726,0.5467642243600003
1727,0.0
1728,10.763080166542887
1729,14.288420203791528
1735,14.091193833591563
1957,10.715942929851535
1958,14.288420203791528
2,1, 7, 1, 0,14, 0.00,60.00,Sunday
7,18.34083333333333
652,23.450000000000029
654,23.38259906188023
655,21.721714408484457
656,14.435156143546227
657,19.912531253591813
653,0.0
1722,7847.167455514529
1725,0.5467642243600003
1726,0.5467642243600003
1727,0.0
1728,10.880117925703415
1729,14.305459848351822
1735,14.662799738861138
1957,10.832981518573805
1958,14.305459848351822
2,1, 7, 1, 0,15, 0.00,60.00,Sunday
7,17.79999999999998
652,23.450000000000029
654,23.382444751904694
655,21.73259416075297
656,14.539996066635219
657,19.85061170279292
653,0.0
1722,7496.990651890901
1725,0.5467642243600003
1726,0.5467642243600003
1727,0.0
1728,11.156958874601225
1729,14.429710976124183
1735,13.253249161510354
1957,11.109821797820903
1958,14.429710976124183
2,1, 7, 1, 0,16, 0.00,60.00,Sunday
7,16.935833333333336
652,23.450000000000029
654,23.382632005334913
655,21.749164747614814
656,14.61905574458933
657,19.446754753008596
653,0.0
1722,6730.893031360347
1725,0.5467642243600003
1726,0.5467642243600003
1727,0.0
1728,11.571339288645096
1729,14.509992567928287
1735,12.858453514579388
1957,11.52419773479002
1958,14.509992567928287
2,1, 7, 1, 0,17, 0.00,60.00,Sunday
7,15.845833333333332
652,23.450000000000029
654,23.383049235113537
655,21.770622827584586
656,14.767892162161168
657,19.02583157253377
653,0.0
1722,5860.094982664902
1725,0.5467642243600003
1726,0.5467642243600003
1727,0.0
1728,12.121111765712357
1729,14.679995949373339
1735,11.9795261187456
1957,12.073965439282649
1958,14.679995949373339
2,1, 7, 1, 0,18, 0.00,60.00,Sunday
7,15.854166666666666
652,23.450000000000029
654,23.383724016176413
655,21.795870272239779
656,14.869822885999492
657,18.757894703613976
653,0.0
1722,5980.9158035731729
1725,0.5467642243600003
1726,0.5467642243600003
1727,0.0
1728,12.125259949493359
1729,14.736904666242089
1735,11.9795261187456
1957,12.078110588791594
1958,14.736904666242089
2,1, 7, 1, 0,19, 0.00,60.00,Sunday
7,16.100000000000017
652,23.450000000000029
654,23.38445867773366
655,21.798820734163596
656,14.820340755168177
657,18.442765288138959
653,0.0
1722,6063.777365275523
1725,0.5467642243600003
1726,0.5467642243600003
1727,0.0
1728,11.999445186263472
1729,14.647178255264134
1735,11.9795261187456
1957,11.952292303201805
1958,14.647178255264134
2,1, 7, 1, 0,20, 0.00,60.00,Sunday
7,16.100000000000017
652,23.450000000000029
654,23.38478689486879
655,21.78393657064343
656,14.718133255285397
657,18.129820725188976
653,0.0
1722,5628.81467975542
1725,0.528538750214667
1726,0.528538750214667
1727,0.0
1728,11.999408668455934
1729,14.45721635101822
1735,11.9795261187456
1957,11.952252252252262
1958,14.455644420508728
2,1, 7, 1, 0,21, 0.00,60.00,Sunday
7,16.100000000000017
652,23.450000000000029
654,23.38467789394538
655,21.784681043667516
656,14.855780731484574
657,18.000760354144484
653,0.0
1722,3508.093588170426
1725,0.30072032339800017
1726,0.30071736899110637
1727,0.0000029544068938032927
1728,11.999476308673288
1729,13.531276506468215
1735,11.9795261187456
1957,11.952252252252262
1958,13.509989289561496
2,1, 7, 1, 0,22, 0.00,60.00,Sunday
7,16.659166666666669
652,23.450000000000029
654,23.38491602291061
655,21.828977838969043
656,15.07910431167839
657,18.0028780781672
653,0.0
1722,4479.607551554058
1725,0.36450948290666687
1726,0.3366105791027401
1727,0.02789890380392663
1728,11.996559405524716
1729,13.95256655014636
1735,11.9795261187456
1957,11.693490467556867
1958,13.68093619502614
2,1, 7, 1, 0,23, 0.00,60.00,Sunday
7,17.20000000000002
652,23.450000000000029
654,23.385761324770216
655,21.846621086404264
656,15.121999591408179
657,18.00256891156119
653,0.0
1722,4283.041369647936
1725,0.34628400876133355
1726,0.2934120658548495
1727,0.052871942906483799
1728,11.99633639687852
1729,13.866513159369296
1735,11.9795261187456
1957,11.40732665391469
1958,13.307370064789819
2,1, 7, 1, 0,24, 0.00,60.00,Sunday
7,17.20000000000002
652,23.450000000000029
654,23.386487443615818
655,21.85733725000217
656,15.18057290254433
657,18.002688976771407
653,0.0
1722,4490.62365525424
1725,0.3553967458340002
1726,0.3020688744390767
1727,0.05332787139492331
1728,11.996368417914884
1729,13.957185386039472
1735,11.9795261187456
1957,11.407207207207197