Program Version,EnergyPlus, Version 9.5.0-de239b2e5f, YMD=2021.07.22 14:16
1,5,Environment Title[],Latitude[deg],Longitude[deg],Time Zone[],Elevation[m]
2,8,Day of Simulation[],Month[],Day of Month[],DST Indicator[1=yes 0=no],Hour[],StartMinute[],EndMinute[],DayType
3,5,Cumulative Day of Simulation[],Month[],Day of Month[],DST Indicator[1=yes 0=no],DayType  ! When Daily Report Variables Requested
4,2,Cumulative Days of Simulation[],Month[]  ! When Monthly Report Variables Requested
5,1,Cumulative Days of Simulation[] ! When Run Period Report Variables Requested
6,1,Calendar Year of Simulation[] ! When Annual Report Variables Requested
7,1,Environment,Site Outdoor Air Drybulb Temperature [C] !Hourly
652,1,PERIMETER_BOT_ZN_1,Zone Mean Air Temperature [C] !Hourly
1717,1,PERI1_TOP_LOTEMP,Zone Radiant HVAC Cooling Rate [W] !Hourly
1720,1,PERI1_TOP_LOTEMP,Zone Radiant HVAC Mass Flow Rate [kg/s] !Hourly
1721,1,PERI1_TOP_LOTEMP,Zone Radiant HVAC Injection Mass Flow Rate [kg/s] !Hourly
1722,1,PERI1_TOP_LOTEMP,Zone Radiant HVAC Recirculation Mass Flow Rate [kg/s] !Hourly
1723,1,PERI1_TOP_LOTEMP,Zone Radiant HVAC Inlet Temperature [C] !Hourly
1724,1,PERI1_TOP_LOTEMP,Zone Radiant HVAC Outlet Temperature [C] !Hourly
1730,1,PERI2_TOP_LOTEMP,Zone Radiant HVAC Outlet Temperature [C] !Hourly
1952,1,PERI1_TOP_LOTEMP_CHW_INLET,System Node Temperature [C] !Hourly
1953,1,PERI1_TOP_LOTEMP_CHW_OUTLET,System Node Temperature [C] !Hourly
End of Data Dictionary
1,ATLANTA-HARTSFIELD.JACKSON.INTL.AP_GA_USA ANN HTG 99.6% CONDNS DB,  33.63, -84.43,  -5.00, 308.00
2,1, 1,21, 0, 1, 0.00,60.00,WinterDesignDay
7,-6.300000000000007
652,18.00185249174523
1717,0.0
1720,0.2508955978666665
1721,0.030324945821357708
1722,0.22057065204530905
1723,30.081223015242537
1724,26.73939651594505
1730,40.84791240893569
1952,15.67995104349447
1953,15.67995104349447
2,1, 1,21, 0, 2, 0.00,60.00,WinterDesignDay
7,-6.300000000000007
652,18.00265398400068
1717,0.0
1720,0.27777726906666647
1721,0.03353725055737427
1722,0.24424001850929237
1723,30.06720641198472
1724,26.37070746108011
1730,40.84723002400808
1952,15.67995104349447
1953,15.67995104349447
2,1, 1,21, 0, 3, 0.00,60.00,WinterDesignDay
7,-6.300000000000007
652,18.000725234554513
1717,0.0
1720,0.25985615493333316
1721,0.03151561000624906
1722,0.22834054492708426
1723,30.07457023847898
1724,26.599938992257568
1730,40.8466120066088
1952,15.67995104349447
1953,15.67995104349447
2,1, 1,21, 0, 4, 0.00,60.00,WinterDesignDay
7,-6.300000000000007
652,18.002823746806805
1717,0.0
1720,0.25985615493333316
1721,0.031421927594375679
1722,0.2284342273389576
1723,30.07590150754074
1724,26.613015450793595
1730,40.84605074975029
1952,15.67995104349447
1953,15.67995104349447
2,1, 1,21, 0, 5, 0.00,60.00,WinterDesignDay
7,-6.300000000000007
652,18.001791997604454
1717,0.0
1720,0.27777726906666647
1721,0.03357075868368606
1722,0.24420651038298059
1723,30.069177986545254
1724,26.368598092001446
1730,40.84554026740589
1952,15.67995104349447
1953,15.67995104349447
2,1, 1,21, 0, 6, 0.00,60.00,WinterDesignDay
7,-6.300000000000007
652,18.00269327011303
1717,0.0
1720,0.24193504079999987
1721,0.029313305637935676
1722,0.21262173516206435
1723,30.068641051476367
1724,26.83672519135276
1730,40.84507483766315
1952,15.67995104349447
1953,15.67995104349447
2,1, 1,21, 0, 7, 0.00,60.00,WinterDesignDay
7,-6.300000000000007
652,18.027405948734804
1717,0.0
1720,0.18817169839999996
1721,0.024332708989071983
1722,0.16383898941092799
1723,30.074956875029029
1724,27.367913716233
1730,40.85641012610269
1952,15.67995104349447
1953,15.67995104349447
2,1, 1,21, 0, 8, 0.00,60.00,WinterDesignDay
7,-6.300000000000007
652,18.002708889279814
1717,0.0
1720,0.2508955978666665
1721,0.03260678733997156
1722,0.21828881052669509
1723,30.06984933571932
1724,26.43938493535207
1730,40.86436282751302
1952,15.67995104349447
1953,15.67995104349447
2,1, 1,21, 0, 9, 0.00,60.00,WinterDesignDay
7,-6.300000000000007
652,18.00151355839066
1717,0.0
1720,0.27777726906666647
1721,0.036038878798274689
1722,0.24173839026839204
1723,30.0735626329849
1724,26.063506352021446
1730,40.86651033524767
1952,15.67995104349447
1953,15.67995104349447
2,1, 1,21, 0,10, 0.00,60.00,WinterDesignDay
7,-6.300000000000007
652,18.00155419795262
1717,0.0
1720,0.25985615493333316
1721,0.033682525497854578
1722,0.22617362943547884
1723,30.074807816273404
1724,26.32607839176279
1730,40.867752070139427
1952,15.67995104349447
1953,15.67995104349447
2,1, 1,21, 0,11, 0.00,60.00,WinterDesignDay
7,-6.300000000000007
652,18.001713250741106
1717,0.0
1720,0.25985615493333316
1721,0.03366132472357409
1722,0.22619483020975923
1723,30.08024248657948
1724,26.335554838908594
1730,40.86866986294549
1952,15.67995104349447
1953,15.67995104349447
2,1, 1,21, 0,12, 0.00,60.00,WinterDesignDay
7,-6.300000000000007
652,18.00126534301973
1717,0.0
1720,0.2688167119999998
1721,0.034830753977157079
1722,0.23398595802284298
1723,30.071100916046605
1724,26.195446589885809
1730,40.86943596136319
1952,15.67995104349447
1953,15.67995104349447
2,1, 1,21, 0,13, 0.00,60.00,WinterDesignDay
7,-6.300000000000007
652,18.002222927882085
1717,0.0
1720,0.25985615493333316
1721,0.03360038008175095
1722,0.2262557748515824
1723,30.07751942981495
1724,26.34034242942015
1730,40.870106630078499
1952,15.67995104349447
1953,15.67995104349447
2,1, 1,21, 0,14, 0.00,60.00,WinterDesignDay
7,-6.300000000000007
652,18.000791913040975
1717,0.0
1720,0.2688167119999998
1721,0.03481768639632491
1722,0.2339990256036751
1723,30.075971148082748
1724,26.20229934421138
1730,40.87070304626441
1952,15.67995104349447
1953,15.67995104349447
2,1, 1,21, 0,15, 0.00,60.00,WinterDesignDay
7,-6.300000000000007
652,18.002780946383067
1717,0.0
1720,0.25985615493333316
1721,0.03354451908132818
1722,0.22631163585200513
1723,30.076376586553829
1724,26.345987936414397
1730,40.87123621639663
1952,15.67995104349447
1953,15.67995104349447
2,1, 1,21, 0,16, 0.00,60.00,WinterDesignDay
7,-6.300000000000007
652,17.99986280345113
1717,0.0
1720,0.2688167119999998
1721,0.034844305725627407
1722,0.23397240627437258
1723,30.079641088222436
1724,26.203038733657409
1730,40.8717143784194
1952,15.67995104349447
1953,15.67995104349447
2,1, 1,21, 0,17, 0.00,60.00,WinterDesignDay
7,-6.300000000000007
652,18.00246189276633
1717,0.0
1720,0.25985615493333316
1721,0.03354089816055062
1722,0.22631525677278273
1723,30.078691856850136
1724,26.34892810414664
1730,40.87214349233823
1952,15.67995104349447
1953,15.67995104349447
2,1, 1,21, 0,18, 0.00,60.00,WinterDesignDay
7,-6.300000000000007
652,17.999960023233187
1717,0.0
1720,0.2688167119999998
1721,0.034826938350902638
1722,0.23398977364909732
1723,30.079133431145807
1724,26.204698106531887
1730,40.87252883502936
1952,15.67995104349447
1953,15.67995104349447
2,1, 1,21, 0,19, 0.00,60.00,WinterDesignDay
7,-6.300000000000007
652,17.98332604354514
1717,0.0
1720,0.3584222826666663
1721,0.04404662134981118
1722,0.3143756613168555
1723,30.162998658798228
1724,25.308159646766513
1730,40.861076445055989
1952,15.67995104349447
1953,15.67995104349447
2,1, 1,21, 0,20, 0.00,60.00,WinterDesignDay
7,-6.300000000000007
652,17.99973223352021
1717,0.0
1720,0.2688167119999998
1721,0.032386249775144957
1722,0.23643046222485504
1723,30.08558693736089
1724,26.51762256557667
1730,40.8530355967291
1952,15.67995104349447
1953,15.67995104349447
2,1, 1,21, 0,21, 0.00,60.00,WinterDesignDay
7,-6.300000000000007
652,18.00109057519941
1717,0.0
1720,0.27777726906666647
1721,0.03345087868005199
1722,0.2443263903866147
1723,30.072334467439249
1724,26.386854977151818
1730,40.850812489112197
1952,15.67995104349447
1953,15.67995104349447
2,1, 1,21, 0,22, 0.00,60.00,WinterDesignDay
7,-6.300000000000007
652,18.00355357159977
1717,0.0
1720,0.24193504079999987
1721,0.029190924383577525
1722,0.21274411641642253
1723,30.06141014885591
1724,26.844381602340858
1730,40.84949858892084
1952,15.67995104349447
1953,15.67995104349447
2,1, 1,21, 0,23, 0.00,60.00,WinterDesignDay
7,-6.300000000000007
652,18.001231814301215
1717,0.0
1720,0.27777726906666647
1721,0.03354407847235785
1722,0.2442331905943088
1723,30.081444978700245
1724,26.3855643581232
1730,40.84851051276554
1952,15.67995104349447
1953,15.67995104349447
2,1, 1,21, 0,24, 0.00,60.00,WinterDesignDay
7,-6.300000000000007
652,18.001670052964607
1717,0.0
1720,0.25985615493333316
1721,0.03144580517103561
1722,0.22841034976229775
1723,30.070621289994596
1724,26.6043042310293
1730,40.84767509418413
1952,15.67995104349447
1953,15.67995104349447
1,ATLANTA-HARTSFIELD.JACKSON.INTL.AP_GA_USA ANN CLG .4% CONDNS DB=>MWB,  33.63, -84.43,  -5.00, 308.00
2,1, 7,21, 0, 1, 0.00,60.00,SummerDesignDay
7,26.32025
652,22.00591400120483
1717,8280.711133775625
1720,0.3827349570520002
1721,0.194580269872881
1722,0.18815468717911899
1723,11.978605554484402
1724,15.594328274713686
1730,28.92461662777848
1952,6.8785691786623739
1953,10.527302184956819
2,1, 7,21, 0, 2, 0.00,60.00,SummerDesignDay
7,25.84683333333334
652,22.008485659528174
1717,9068.05008572308
1720,0.40096043119733357
1721,0.21319895290986855
1722,0.18776147828746485
1723,11.97340517063803
1724,15.93290965094551
1730,28.971893398398878
1952,7.116985051851148
1953,11.111071692172063
2,1, 7,21, 0, 3, 0.00,60.00,SummerDesignDay
7,25.515125
652,22.01340952595449
1717,9814.237076827345
1720,0.4191859053426669
1721,0.23045561095579635
1722,0.18873029438687026
1723,11.962360905256994
1724,16.247663424574605
1730,29.03786979660203
1952,7.282836328886334
1953,11.604292761399114
2,1, 7,21, 0, 4, 0.00,60.00,SummerDesignDay
7,25.230124999999995
652,22.011780099703328
1717,10031.590541899845
1720,0.4191859053426669
1721,0.23572755806464325
1722,0.18345834727802347
1723,11.9664246140728
1724,16.346640166965725
1730,29.104956709799063
1952,7.424427201677919
1953,11.840828603352094
2,1, 7,21, 0, 5, 0.00,60.00,SummerDesignDay
7,24.993416666666673
652,22.01298001693384
1717,10437.259314828412
1720,0.42829864241533358
1721,0.24629998744601865
1722,0.1819986549693148
1723,11.964800140186134
1724,16.52214708461976
1730,29.171332358685566
1952,7.565327287207723
1953,12.163900310616759
2,1, 7,21, 0, 6, 0.00,60.00,SummerDesignDay
7,24.996583333333335
652,22.020179497750655
1717,11954.343754498532
1720,0.4829750648513336
1721,0.28843510144922038
1722,0.19453996340211297
1723,11.948601444776385
1724,17.168350186421625
1730,29.297910368202986
1952,7.8330418793295719
1953,13.107777454776145
2,1, 7,21, 0, 7, 0.00,60.00,SummerDesignDay
7,25.42804166666666
652,22.303048566386857
1717,13760.523743569349
1720,0.5467642243600003
1721,0.4931305141422181
1722,0.05363371021778218
1723,11.376085995835876
1724,17.383506207143676
1730,30.113191752110365
1952,10.419511268099046
1953,16.49618876334564
2,1, 7,21, 0, 8, 0.00,60.00,SummerDesignDay
7,26.575958333333334
652,22.415670492669489
1717,13459.488222025308
1720,0.5467642243600003
1721,0.5467642243600003
1722,0.0
1723,11.123141129664229
1724,16.99871759205554
1730,30.164286205502717
1952,11.044016117723226
1953,16.99871759205554
2,1, 7,21, 0, 9, 0.00,60.00,SummerDesignDay
7,28.287541666666664
652,22.646629222398766
1717,13448.83625267728
1720,0.5467642243600003
1721,0.5467642243600003
1722,0.0
1723,10.744927640179649
1724,16.615218285127488
1730,30.164286205502717
1952,10.66512383120592
1953,16.615218285127488
2,1, 7,21, 0,10, 0.00,60.00,SummerDesignDay
7,29.995958333333328
652,22.894678497483949
1717,13431.398678890047
1720,0.5467642243600003
1721,0.5467642243600003
1722,0.0
1723,10.162239061306904
1724,16.023933217359806
1730,30.164286205502717
1952,10.08184419812128
1953,16.023933217359806
2,1, 7,21, 0,11, 0.00,60.00,SummerDesignDay
7,31.514374999999995
652,23.27685837487602
1717,13442.389861477446
1720,0.5467642243600003
1721,0.5467642243600003
1722,0.0
1723,9.517666684102047
1724,15.382946771054455
1730,30.164286205502717
1952,9.43687178134325
1953,15.382946771054455
2,1, 7,21, 0,12, 0.00,60.00,SummerDesignDay
7,32.697916666666667
652,23.79140991947572
1717,13466.460740312226
1720,0.5467642243600003
1721,0.5467642243600003
1722,0.0
1723,9.13274083008456
1724,15.007768471787463
1730,30.164286205502717
1952,9.051794078108119
1953,15.007768471787463
2,1, 7,21, 0,13, 0.00,60.00,SummerDesignDay
7,33.55133333333333
652,24.271879833413594
1717,13482.642752190352
1720,0.5467642243600003
1721,0.5467642243600003
1722,0.0
1723,9.01780409728108
1724,14.899665764517494
1730,30.164286205502717
1952,8.936798602890033
1953,14.899665764517494
2,1, 7,21, 0,14, 0.00,60.00,SummerDesignDay
7,34.16645833333333
652,24.589928877848437
1717,13488.38334378583
1720,0.5467642243600003
1721,0.5467642243600003
1722,0.0
1723,9.046721707056085
1724,14.931144559349792
1730,30.164286205502717
1952,8.965687628937769
1953,14.931144559349792
2,1, 7,21, 0,15, 0.00,60.00,SummerDesignDay
7,34.40000000000004
652,24.65745353918741
1717,13485.402031177573
1720,0.5467642243600003
1721,0.5467642243600003
1722,0.0
1723,9.09262906661841
1724,14.975841490361044
1730,30.164286205502717
1952,9.011606035039004
1953,14.975841490361044
2,1, 7,21, 0,16, 0.00,60.00,SummerDesignDay
7,34.110250000000018
652,24.431591020541079
1717,13477.332013941294
1720,0.5467642243600003
1721,0.5467642243600003
1722,0.0
1723,9.06131628031287
1724,14.940946562028368
1730,30.164286205502717
1952,8.980328351117875
1953,14.940946562028368
2,1, 7,21, 0,17, 0.00,60.00,SummerDesignDay
7,33.44366666666667
652,23.98896330996651
1717,13469.177391079458
1720,0.5467642243600003
1721,0.5467642243600003
1722,0.0
1723,8.91619104023023
1724,14.79197902733498
1730,30.164286205502717
1952,8.835243038353039
1953,14.79197902733498
2,1, 7,21, 0,18, 0.00,60.00,SummerDesignDay
7,32.58708333333333
652,23.460886996230344
1717,13316.3413262046
1720,0.5467642243600003
1721,0.5273404817268124
1722,0.019423742633187907
1723,8.745520558555598
1724,14.554301488958199
1730,30.164286205502717
1952,8.417120388016889
1953,14.308069855337918
2,1, 7,21, 0,19, 0.00,60.00,SummerDesignDay
7,31.395624999999997
652,22.95176586866593
1717,11342.59309531254
1720,0.5467642243600003
1721,0.3481864421615598
1722,0.19857778219844023
1723,9.601606942102654
1724,14.55079516422733
1730,30.164286205502717
1952,6.701167172870084
1953,11.697480027693077
2,1, 7,21, 0,20, 0.00,60.00,SummerDesignDay
7,30.16379166666667
652,22.611991814751727
1717,9985.38993575398
1720,0.5467642243600003
1721,0.29683025891566996
1722,0.24993396544433017
1723,10.459217725934133
1724,14.817384264601872
1730,30.164286205502717
1952,6.699999999999993
1953,11.105303666149638
2,1, 7,21, 0,21, 0.00,60.00,SummerDesignDay
7,29.215374999999999
652,22.366350827302914
1717,9225.345636579996
1720,0.5467642243600003
1721,0.2651774732906625
1722,0.28158675106933769
1723,11.075622497984386
1724,15.102777596143012
1730,30.164286205502717
1952,6.699999999999993
1953,10.77430054755923
2,1, 7,21, 0,22, 0.00,60.00,SummerDesignDay
7,28.360375
652,22.197777847683154
1717,8806.760539995163
1720,0.5467642243600003
1721,0.24619942572897739
1722,0.3005647986310225
1723,11.499701239845573
1724,15.344599335850658
1730,30.164286205502717
1952,6.699999999999993
1953,10.592049272500985
2,1, 7,21, 0,23, 0.00,60.00,SummerDesignDay
7,27.60195833333334
652,21.983895343372624
1717,4368.527343812227
1720,0.23693116388933345
1721,0.10913213036767158
1722,0.1277990335216618
1723,11.947753267943734
1724,13.855230873904244
1730,28.765857382163568
1952,6.699999999999993
1953,8.627912373985926
2,1, 7,21, 0,24, 0.00,60.00,SummerDesignDay
7,26.936958333333334
652,22.004932031313925
1717,6984.689104968869
1720,0.34628400876133355
1721,0.16688309698504048
1722,0.17940091177629287
1723,11.98094679034867
1724,15.030770938054263
1730,28.619983239478225
1952,6.701331314043548
1953,9.781021928249606
1,RUNPERIOD 1,  33.63, -84.43,  -5.00, 308.00
2,1, 7, 1, 0, 1, 0.00,60.00,Sunday
7,21.118333333333337
652,21.57369747033341
1717,0.0
1720,0.0
1721,0.0
1722,0.0
1723,12.40182579418297
1724,12.40182579418297
1730,11.989244508985886
1952,12.503514877115207
1953,12.503514877115207
2,1, 7, 1, 0, 2, 0.00,60.00,Sunday
7,22.098333333333334
652,21.62971110005208
1717,0.0
1720,0.0
1721,0.0
1722,0.0
1723,12.40182579418297
1724,12.40182579418297
1730,11.989244508985886
1952,12.503514877115207
1953,12.503514877115207
2,1, 7, 1, 0, 3, 0.00,60.00,Sunday
7,21.949166666666675
652,21.63325961643822
1717,0.0
1720,0.0
1721,0.0
1722,0.0
1723,12.40182579418297
1724,12.40182579418297
1730,11.989244508985886
1952,12.503514877115207
1953,12.503514877115207
2,1, 7, 1, 0, 4, 0.00,60.00,Sunday
7,21.79833333333333
652,21.629079272341927
1717,0.0
1720,0.0
1721,0.0
1722,0.0
1723,12.40182579418297
1724,12.40182579418297
1730,11.989244508985886
1952,12.503514877115207
1953,12.503514877115207
2,1, 7, 1, 0, 5, 0.00,60.00,Sunday
7,21.700000000000025
652,21.632022812153893
1717,0.0
1720,0.0
1721,0.0
1722,0.0
1723,12.40182579418297
1724,12.40182579418297
1730,11.989244508985886
1952,12.503514877115207
1953,12.503514877115207
2,1, 7, 1, 0, 6, 0.00,60.00,Sunday
7,21.954166666666663
652,21.669893778318046
1717,0.0
1720,0.0
1721,0.0
1722,0.0
1723,12.40182579418297
1724,12.40182579418297
1730,13.052887888217614
1952,12.503514877115207
1953,12.503514877115207
2,1, 7, 1, 0, 7, 0.00,60.00,Sunday
7,22.200000000000025
652,21.905488391221416
1717,791.6989582473445
1720,0.027338211218000006
1721,0.027338211218000006
1722,0.0
1723,12.620703733019634
1724,12.9665440268461
1730,14.19254533681123
1952,12.70954801417402
1953,13.05935063745219
2,1, 7, 1, 0, 8, 0.00,60.00,Sunday
7,23.31833333333333
652,22.13637417636975
1717,0.0
1720,0.0
1721,0.0
1722,0.0
1723,14.031808462741074
1724,14.031808462741074
1730,14.299490352120062
1952,14.09551736387803
1953,14.09551736387803
2,1, 7, 1, 0, 9, 0.00,60.00,Sunday
7,25.823333333333335
652,22.194670057204836
1717,13368.35144809369
1720,0.5467642243600003
1721,0.5467642243600003
1722,0.0
1723,13.308788754755656
1724,19.14823410695899
1730,14.963200737487508
1952,13.23619033676089
1953,19.14823410695899
2,1, 7, 1, 0,10, 0.00,60.00,Sunday
7,27.759166666666667
652,22.261901094250658
1717,13456.298421047917
1720,0.5467642243600003
1721,0.5467642243600003
1722,0.0
1723,12.289056730013553
1724,18.165202816499514
1730,14.451523585513228
1952,12.215157027301498
1953,18.165202816499514
2,1, 7, 1, 0,11, 0.00,60.00,Sunday
7,29.164166666666668
652,22.612542577339345
1717,13467.957423520867
1720,0.5467642243600003
1721,0.5467642243600003
1722,0.0
1723,11.900638128994503
1724,17.781221242688905
1730,13.408042845700687
1952,11.824789320762808
1953,17.781221242688905
2,1, 7, 1, 0,12, 0.00,60.00,Sunday
7,30.0
652,23.175120875126216
1717,13473.59549766648
1720,0.5467642243600003
1721,0.5467642243600003
1722,0.0
1723,11.666834485058735
1724,17.549485373063886
1730,13.505096889310642
1952,11.588914956325397
1953,17.549485373063886
2,1, 7, 1, 0,13, 0.00,60.00,Sunday
7,30.86416666666667
652,23.568008765952535
1717,13472.49266579707
1720,0.5467642243600003
1721,0.5467642243600003
1722,0.0
1723,11.498215068461793
1724,17.38010034094022
1730,13.297543186915892
1952,11.419514341855857
1953,17.38010034094022
2,1, 7, 1, 0,14, 0.00,60.00,Sunday
7,29.717500000000006
652,23.369282236693974
1717,13464.20395156689
1720,0.5467642243600003
1721,0.5467642243600003
1722,0.0
1723,11.278272741127799
1724,17.156168982284219
1730,13.352701665882377
1952,11.199306008926416
1953,17.156168982284219
2,1, 7, 1, 0,15, 0.00,60.00,Sunday
7,28.613333333333335
652,23.0874276350567
1717,13454.638174433416
1720,0.5467642243600003
1721,0.5467642243600003
1722,0.0
1723,10.953892435212208
1724,16.8270670123369
1730,13.380819781615083
1952,10.874379147665831
1953,16.8270670123369
2,1, 7, 1, 0,16, 0.00,60.00,Sunday
7,28.0275
652,22.60778807983348
1717,12759.91335854812
1720,0.5467642243600003
1721,0.4641825772904499
1722,0.08258164706955033
1723,10.753530350919533
1724,16.323101231113339
1730,13.54660350735399
1952,9.357764287864394
1953,15.005355445751566
2,1, 7, 1, 0,17, 0.00,60.00,Sunday
7,25.276666666666665
652,22.031515617186775
1717,4553.682506758751
1720,0.23693116388933345
1721,0.11857806843723502
1722,0.11835309545209834
1723,11.88477798014269
1724,13.872990956279076
1730,14.034749216639784
1952,7.269668362601262
1953,9.278314973054423
2,1, 7, 1, 0,18, 0.00,60.00,Sunday
7,23.594999999999997
652,21.99520009032776
1717,3945.2770359751327
1720,0.1549165302353334
1721,0.09956083047846022
1722,0.05535569975687313
1723,11.996322146607659
1724,13.71901526056443
1730,14.425408437232557
1952,8.50251433453755
1953,10.238019567921392
2,1, 7, 1, 0,19, 0.00,60.00,Sunday
7,23.604999999999995
652,22.006250345308204
1717,0.0
1720,0.0
1721,0.0
1722,0.0
1723,11.997199913681389
1724,11.997199913681389
1730,13.761605401639852
1952,9.641245076659703
1953,9.641245076659703
2,1, 7, 1, 0,20, 0.00,60.00,Sunday
7,21.917500000000005
652,21.88693116197713
1717,1354.78602496346
1720,0.045563685363333338
1721,0.04115027443255259
1722,0.0044134109307807458
1723,12.263135557010069
1724,12.854695927708509
1730,12.44606364519579
1952,12.310893315015255
1953,12.903836213572824
2,1, 7, 1, 0,21, 0.00,60.00,Sunday
7,20.304999999999994
652,21.673665854409696
1717,0.0
1720,0.0
1721,0.0
1722,0.0
1723,12.288501177085666
1724,12.288501177085666
1730,12.515346784572467
1952,12.419399527089477
1953,12.419399527089477
2,1, 7, 1, 0,22, 0.00,60.00,Sunday
7,20.294999999999996
652,21.623634693281063
1717,0.0
1720,0.0
1721,0.0
1722,0.0
1723,12.288501177085666
1724,12.288501177085666
1730,11.992145751956278
1952,12.419399527089477
1953,12.419399527089477
2,1, 7, 1, 0,23, 0.00,60.00,Sunday
7,20.0
652,21.588755352415118
1717,0.0
1720,0.0
1721,0.0
1722,0.0
1723,12.288501177085666
1724,12.288501177085666
1730,11.992145751956278
1952,12.419399527089477
1953,12.419399527089477
2,1, 7, 1, 0,24, 0.00,60.00,Sunday
7,20.0
652,21.55913778770341
1717,0.0
1720,0.0
1721,0.0
1722,0.0
1723,12.288501177085666
1724,12.288501177085666
1730,11.992145751956278
1952,12.419399527089477
1953,12.419399527089477
2,2, 7, 2, 0, 1, 0.00,60.00,Monday
7,20.0
652,21.600575622619457
1717,0.0
1720,0.0
1721,0.0
1722,0.0
1723,12.288501177085666
1724,12.288501177085666
1730,11.992145751956278
1952,12.419399527089477
1953,12.419399527089477
2,2, 7, 2, 0, 2, 0.00,60.00,Monday
7,20.0
652,21.606055728921306
1717,0.0
1720,0.0
1721,0.0
1722,0.0
1723,12.288501177085666
1724,12.288501177085666
1730,11.992145751956278
1952,12.419399527089477
1953,12.419399527089477
2,2, 7, 2, 0, 3, 0.00,60.00,Monday
7,19.440833333333335
652,21.57818321735684
1717,0.0
1720,0.0
1721,0.0
1722,0.0
1723,12.288501177085666
1724,12.288501177085666
1730,11.992145751956278
1952,12.419399527089477
1953,12.419399527089477
2,2, 7, 2, 0, 4, 0.00,60.00,Monday
7,19.154166666666666
652,21.50898953988904
1717,0.0
1720,0.0
1721,0.0
1722,0.0
1723,12.288501177085666
1724,12.288501177085666
1730,11.992145751956278
1952,12.419399527089477
1953,12.419399527089477
2,2, 7, 2, 0, 5, 0.00,60.00,Monday
7,19.399999999999996
652,21.49281253754951
1717,0.0
1720,0.0
1721,0.0
1722,0.0
1723,12.288501177085666
1724,12.288501177085666
1730,11.992145751956278
1952,12.419399527089477
1953,12.419399527089477
2,2, 7, 2, 0, 6, 0.00,60.00,Monday
7,19.399999999999996
652,21.510570176405297
1717,0.0
1720,0.0
1721,0.0
1722,0.0
1723,12.288501177085666
1724,12.288501177085666
1730,11.992145751956278
1952,12.419399527089477
1953,12.419399527089477
2,2, 7, 2, 0, 7, 0.00,60.00,Monday
7,19.705
652,21.576938877837728
1717,0.0
1720,0.0
1721,0.0
1722,0.0
1723,12.288501177085666
1724,12.288501177085666
1730,13.218142540149291
1952,12.419399527089477
1953,12.419399527089477
2,2, 7, 2, 0, 8, 0.00,60.00,Monday
7,21.118333333333337
652,21.695924977242144
1717,2572.9333896931955
1720,0.10024010779933336
1721,0.10024010779933335
1722,0.0
1723,12.600670633708758
1724,13.724764865699685
1730,11.399609995161452
1952,12.69449357995274
1953,13.831665184869467
2,2, 7, 2, 0, 9, 0.00,60.00,Monday
7,23.62333333333333
652,22.75380694911629
1717,13387.110696740858
1720,0.5467642243600003
1721,0.5467642243600003
1722,0.0
1723,13.089230877751076
1724,18.93650248499048
1730,11.346434893531143
1952,13.01589138001517
1953,18.93650248499048
2,2, 7, 2, 0,10, 0.00,60.00,Monday
7,25.55916666666667
652,23.095149596870458
1717,13460.691330306181
1720,0.5467642243600003
1721,0.5467642243600003
1722,0.0
1723,12.282107870212837
1724,18.16016062112355
1730,11.346434893531143
1952,12.207671290876558
1953,18.16016062112355
2,2, 7, 2, 0,11, 0.00,60.00,Monday
7,26.65916666666666
652,23.498695136679939
1717,13471.41492193621
1720,0.5467642243600003
1721,0.5467642243600003
1722,0.0
1723,11.953649598821232
1724,17.8358317191462
1730,11.346434893531143
1952,11.877534369878333
1953,17.8358317191462
2,2, 7, 2, 0,12, 0.00,60.00,Monday
7,28.06416666666667
652,24.037606009067777
1717,13476.172626687181
1720,0.5467642243600003
1721,0.5467642243600003
1722,0.0
1723,11.75819857449341
1724,17.642128643207067
1730,11.346434893531143
1952,11.680316796946098
1953,17.642128643207067
2,2, 7, 2, 0,13, 0.00,60.00,Monday
7,29.459166666666666
652,25.58435311862834
1717,13481.506421294416
1720,0.5467642243600003
1721,0.5467642243600003
1722,0.0
1723,11.668113551293664
1724,17.55422054843464
1730,11.346434893531143
1952,11.589092375498009
1953,17.55422054843464
2,2, 7, 2, 0,14, 0.00,60.00,Monday
7,29.440833333333328
652,25.095000818695163
1717,13475.386101238368
1720,0.5467642243600003
1721,0.5467642243600003
1722,0.0
1723,11.585663963464063
1724,17.468959838680524
1730,11.346434893531143
1952,11.506845523826014
1953,17.468959838680524
2,2, 7, 2, 0,15, 0.00,60.00,Monday
7,29.76416666666667
652,24.943741217666994
1717,13472.299245287777
1720,0.5467642243600003
1721,0.5467642243600003
1722,0.0
1723,11.436633525983583
1724,17.31833059756074
1730,11.346434893531143
1952,11.357625269746718
1953,17.31833059756074
2,2, 7, 2, 0,16, 0.00,60.00,Monday
7,30.854166666666669
652,24.847751758603676
1717,13467.452650992354
1720,0.5467642243600003
1721,0.5467642243600003
1722,0.0
1723,11.245545866897857
1724,17.124805227994089
1730,11.346434893531143
1952,11.166274585278645
1953,17.124805227994089
2,2, 7, 2, 0,17, 0.00,60.00,Monday
7,30.84583333333334
652,24.56779120752895
1717,13458.849339068745
1720,0.5467642243600003
1721,0.5467642243600003
1722,0.0
1723,10.970710410131442
1724,16.845751508674274
1730,11.346434893531143
1952,10.891088703455113
1953,16.845751508674274
2,2, 7, 2, 0,18, 0.00,60.00,Monday
7,30.59999999999997
652,25.388280775037918
1717,13454.374930292288
1720,0.5467642243600003
1721,0.5467642243600003
1722,0.0
1723,10.617830940655754
1724,16.49032537653447
1730,11.346434893531143
1952,10.537691658178839
1953,16.49032537653447
2,2, 7, 2, 0,19, 0.00,60.00,Monday
7,29.430833333333337
652,23.135820593155949
1717,12834.143281380717
1720,0.5467642243600003
1721,0.48562557385979029
1722,0.061138650500210108
1723,10.290662777180599
1724,15.8918881647788
1730,30.315320793220346
1952,9.27849847483719
1953,14.959074308134096
2,2, 7, 2, 0,20, 0.00,60.00,Monday
7,26.927500000000003
652,21.856178240250708
1717,1274.3843451858639
1720,0.07290189658133334
1721,0.03428763044676113
1722,0.03861426613457221
1723,11.874970520968418
1724,12.43134456334638
1730,32.072013783576128
1952,6.70000044734002
1953,7.2626613156835859
2,2, 7, 2, 0,21, 0.00,60.00,Monday
7,24.430833333333334
652,21.727334080768565
1717,0.0
1720,0.0
1721,0.0
1722,0.0
1723,11.93250065604892
1724,11.93250065604892
1730,31.966623192956619
1952,6.700000008852498
1953,6.700000008852498
2,2, 7, 2, 0,22, 0.00,60.00,Monday
7,23.045833333333339
652,21.731247628890168
1717,0.0
1720,0.0
1721,0.0
1722,0.0
1723,11.93250065604892
1724,11.93250065604892
1730,21.570806965715727
1952,6.700000008852498
1953,6.700000008852498
2,2, 7, 2, 0,23, 0.00,60.00,Monday
7,22.494999999999999
652,21.778967120439064
1717,0.0
1720,0.0
1721,0.0
1722,0.0
1723,11.93250065604892
1724,11.93250065604892
1730,12.489249282718822
1952,6.700000008852498
1953,6.700000008852498
2,2, 7, 2, 0,24, 0.00,60.00,Monday
7,21.640833333333334
652,21.751765492109596
1717,0.0
1720,0.0
1721,0.0
1722,0.0
1723,11.93250065604892
1724,11.93250065604892
1730,11.990888292662252
1952,6.700000008852498
1953,6.700000008852498
End of Data
 Number of Records Written=        1056
