Program Version,EnergyPlus, Version 9.5.0-de239b2e5f, YMD=2021.07.16 14:24
1,5,Environment Title[],Latitude[deg],Longitude[deg],Time Zone[],Elevation[m]
2,8,Day of Simulation[],Month[],Day of Month[],DST Indicator[1=yes 0=no],Hour[],StartMinute[],EndMinute[],DayType
3,5,Cumulative Day of Simulation[],Month[],Day of Month[],DST Indicator[1=yes 0=no],DayType  ! When Daily Report Variables Requested
4,2,Cumulative Days of Simulation[],Month[]  ! When Monthly Report Variables Requested
5,1,Cumulative Days of Simulation[] ! When Run Period Report Variables Requested
6,1,Calendar Year of Simulation[] ! When Annual Report Variables Requested
7,1,Environment,Site Outdoor Air Drybulb Temperature [C] !Hourly
652,1,PERIMETER_BOT_ZN_1,Zone Mean Air Temperature [C] !Hourly
1717,1,PERI1_TOP_LOTEMP,Zone Radiant HVAC Cooling Rate [W] !Hourly
1720,1,PERI1_TOP_LOTEMP,Zone Radiant HVAC Mass Flow Rate [kg/s] !Hourly
1721,1,PERI1_TOP_LOTEMP,Zone Radiant HVAC Injection Mass Flow Rate [kg/s] !Hourly
1722,1,PERI1_TOP_LOTEMP,Zone Radiant HVAC Recirculation Mass Flow Rate [kg/s] !Hourly
1723,1,PERI1_TOP_LOTEMP,Zone Radiant HVAC Inlet Temperature [C] !Hourly
1724,1,PERI1_TOP_LOTEMP,Zone Radiant HVAC Outlet Temperature [C] !Hourly
1730,1,PERI2_TOP_LOTEMP,Zone Radiant HVAC Outlet Temperature [C] !Hourly
1952,1,PERI1_TOP_LOTEMP_CHW_INLET,System Node Temperature [C] !Hourly
1953,1,PERI1_TOP_LOTEMP_CHW_OUTLET,System Node Temperature [C] !Hourly
End of Data Dictionary
1,ATLANTA-HARTSFIELD.JACKSON.INTL.AP_GA_USA ANN HTG 99.6% CONDNS DB,  33.63, -84.43,  -5.00, 308.00
2,1, 1,21, 0, 1, 0.00,60.00,WinterDesignDay
7,-6.300000000000007
652,16.051292496802814
1717,0.0
1720,0.27529600000000006
1721,0.04281524426242808
1722,0.23248075573757194
1723,30.020167904309646
1724,28.900128674779169
1730,40.847851297250077
1952,12.200000000024913
1953,12.200000000024913
2,1, 1,21, 0, 2, 0.00,60.00,WinterDesignDay
7,-6.300000000000007
652,16.04967177145685
1717,0.0
1720,0.31462400000000009
1721,0.048944607527027967
1722,0.265679392472972
1723,30.043211981427523
1724,28.76338242859434
1730,40.847168903872098
1952,12.200000000024913
1953,12.200000000024913
2,1, 1,21, 0, 3, 0.00,60.00,WinterDesignDay
7,-6.300000000000007
652,16.049873333433469
1717,0.0
1720,0.27529600000000006
1721,0.042885961452911899
1722,0.2324100385470881
1723,30.025030187349829
1724,28.903146765888093
1730,40.84655082405357
1952,12.200000000024913
1953,12.200000000024913
2,1, 1,21, 0, 4, 0.00,60.00,WinterDesignDay
7,-6.300000000000007
652,16.049194020368377
1717,0.0
1720,0.27529600000000006
1721,0.04291860661278943
1722,0.23237739338721054
1723,30.034713336519336
1724,28.911966290478355
1730,40.845989784274717
1952,12.200000000024913
1953,12.200000000024913
2,1, 1,21, 0, 5, 0.00,60.00,WinterDesignDay
7,-6.300000000000007
652,16.049710385137435
1717,0.0
1720,0.27529600000000006
1721,0.04288610733281196
1722,0.232409892667188
1723,30.03369910955464
1724,28.9117862354823
1730,40.84547919047124
1952,12.200000000024913
1953,12.200000000024913
2,1, 1,21, 0, 6, 0.00,60.00,WinterDesignDay
7,-6.300000000000007
652,16.04868260858905
1717,0.0
1720,0.27529600000000006
1721,0.04292796580659044
1722,0.23236803419340958
1723,30.041849781197269
1724,28.91884102429573
1730,40.84501400041586
1952,12.200000000024913
1953,12.200000000024913
2,1, 1,21, 0, 7, 0.00,60.00,WinterDesignDay
7,-6.300000000000007
652,16.092909520184798
1717,0.0
1720,0.039328
1721,0.006324441658241112
1722,0.03300355834175889
1723,30.006427895501444
1724,29.83997513487344
1730,40.856344972096348
1952,12.200000000024913
1953,12.200000000024913
2,1, 1,21, 0, 8, 0.00,60.00,WinterDesignDay
7,-6.300000000000007
652,16.05122271762102
1717,0.0
1720,0.117984
1721,0.018954354716360225
1722,0.09902964528363979
1723,30.01369966641479
1724,29.514828843683764
1730,40.86430032199745
1952,12.200000000024913
1953,12.200000000024913
2,1, 1,21, 0, 9, 0.00,60.00,WinterDesignDay
7,-6.300000000000007
652,16.058710730765893
1717,0.0
1720,0.078656
1721,0.012647500816686702
1722,0.0660084991833133
1723,30.027164079181725
1724,29.694305537469693
1730,40.86644871814018
1952,12.200000000024913
1953,12.200000000024913
2,1, 1,21, 0,10, 0.00,60.00,WinterDesignDay
7,-6.300000000000007
652,16.053794298409128
1717,0.0
1720,0.117984
1721,0.018946455982614086
1722,0.0990375440173859
1723,30.01645956565109
1724,29.517855005775293
1730,40.86769094769845
1952,12.200000000024913
1953,12.200000000024913
2,1, 1,21, 0,11, 0.00,60.00,WinterDesignDay
7,-6.300000000000007
652,16.04848095332204
1717,0.0
1720,0.117984
1721,0.018975863350880846
1722,0.09900813664911916
1723,30.029779130425248
1724,29.53042249918558
1730,40.86860882256513
1952,12.200000000024913
1953,12.200000000024913
2,1, 1,21, 0,12, 0.00,60.00,WinterDesignDay
7,-6.300000000000007
652,16.053891404911579
1717,0.0
1720,0.078656
1721,0.01262186014087708
1722,0.06603413985912292
1723,30.02005702291177
1724,29.687920087021668
1730,40.869374818012797
1952,12.200000000024913
1953,12.200000000024913
2,1, 1,21, 0,13, 0.00,60.00,WinterDesignDay
7,-6.300000000000007
652,16.057687116175669
1717,0.0
1720,0.117984
1721,0.018961662948764749
1722,0.09902233705123526
1723,30.03194074665174
1724,29.532993286863026
1730,40.87004519108023
1952,12.200000000024913
1953,12.200000000024913
2,1, 1,21, 0,14, 0.00,60.00,WinterDesignDay
7,-6.300000000000007
652,16.052163085869624
1717,0.0
1720,0.117984
1721,0.018978985360011696
1722,0.09900501463998832
1723,30.03416826601497
1724,29.534767825245017
1730,40.87064133792578
1952,12.200000000024913
1953,12.200000000024913
2,1, 1,21, 0,15, 0.00,60.00,WinterDesignDay
7,-6.300000000000007
652,16.051593652584953
1717,0.0
1720,0.117984
1721,0.018952233793226328
1722,0.09903176620677368
1723,30.019674300690875
1724,29.520978777540394
1730,40.87117482313094
1952,12.200000000024913
1953,12.200000000024913
2,1, 1,21, 0,16, 0.00,60.00,WinterDesignDay
7,-6.300000000000007
652,16.05849190266736
1717,0.0
1720,0.078656
1721,0.012614663345128046
1722,0.06604133665487196
1723,30.026627110545826
1724,29.69469779944956
1730,40.87165307791413
1952,12.200000000024913
1953,12.200000000024913
2,1, 1,21, 0,17, 0.00,60.00,WinterDesignDay
7,-6.300000000000007
652,16.05733374460486
1717,0.0
1720,0.117984
1721,0.01894772976380502
1722,0.09903627023619498
1723,30.020981827984316
1724,29.52241480702198
1730,40.87208217593514
1952,12.200000000024913
1953,12.200000000024913
2,1, 1,21, 0,18, 0.00,60.00,WinterDesignDay
7,-6.300000000000007
652,16.052558928224778
1717,0.0
1720,0.117984
1721,0.01894520272526833
1722,0.09903879727473168
1723,30.03208944524781
1724,29.533594614361485
1730,40.87246756711192
1952,12.200000000024913
1953,12.200000000024913
2,1, 1,21, 0,19, 0.00,60.00,WinterDesignDay
7,-6.300000000000007
652,16.041961590605493
1717,0.0
1720,0.4326080000000001
1721,0.06767563811356901
1722,0.36493236188643099
1723,30.10789521648253
1724,28.338724410420867
1730,40.86101525428719
1952,12.200000000024913
1953,12.200000000024913
2,1, 1,21, 0,20, 0.00,60.00,WinterDesignDay
7,-6.300000000000007
652,16.045137506644087
1717,0.0
1720,0.23596800000000005
1721,0.03676693528408565
1722,0.19920106471591435
1723,30.01636687635296
1724,29.054227000668719
1730,40.85297387898963
1952,12.200000000024913
1953,12.200000000024913
2,1, 1,21, 0,21, 0.00,60.00,WinterDesignDay
7,-6.300000000000007
652,16.037761904783687
1717,0.0
1720,0.27529600000000006
1721,0.04291853065112366
1722,0.23237746934887633
1723,30.012948393460886
1724,28.889563801887936
1730,40.85075114045448
1952,12.200000000024913
1953,12.200000000024913
2,1, 1,21, 0,22, 0.00,60.00,WinterDesignDay
7,-6.300000000000007
652,16.05198722233478
1717,0.0
1720,0.31462400000000009
1721,0.048992249381614349
1722,0.2656317506183857
1723,30.05472999261917
1724,28.773819185258657
1730,40.84943731519674
1952,12.200000000024913
1953,12.200000000024913
2,1, 1,21, 0,23, 0.00,60.00,WinterDesignDay
7,-6.300000000000007
652,16.05050458968803
1717,0.0
1720,0.31462400000000009
1721,0.04896775144555288
1722,0.2656562485544471
1723,30.04898491348731
1724,28.76860072204115
1730,40.84844890398689
1952,12.200000000024913
1953,12.200000000024913
2,1, 1,21, 0,24, 0.00,60.00,WinterDesignDay
7,-6.300000000000007
652,16.052974156462726
1717,0.0
1720,0.31462400000000009
1721,0.048822173435864497
1722,0.2658018265641355
1723,30.02327572230002
1724,28.746643652439908
1730,40.84761348825653
1952,12.200000000024913
1953,12.200000000024913
1,ATLANTA-HARTSFIELD.JACKSON.INTL.AP_GA_USA ANN CLG .4% CONDNS DB=>MWB,  33.63, -84.43,  -5.00, 308.00
2,1, 7,21, 0, 1, 0.00,60.00,SummerDesignDay
7,26.32025
652,19.17655478766305
1717,10105.154790435003
1720,2.3997551999999997
1721,0.49440932574509446
1722,1.905345874254905
1723,11.017745448860094
1724,12.022789104927052
1730,28.954107937645966
1952,6.88344961403727
1953,7.942200868586514
2,1, 7,21, 0, 2, 0.00,60.00,SummerDesignDay
7,25.84683333333334
652,19.078779818248035
1717,9960.953282134926
1720,2.3997551999999997
1721,0.5042183419477202
1722,1.8955368580522794
1723,11.099839514038154
1724,12.090564412306973
1730,29.001149877263847
1952,7.119586882741276
1953,8.16402064227018
2,1, 7,21, 0, 3, 0.00,60.00,SummerDesignDay
7,25.515125
652,19.002238182485443
1717,9819.70934524897
1720,2.3997551999999997
1721,0.5092364014448756
1722,1.8905187985551247
1723,11.163838662200833
1724,12.14053322755859
1730,29.066831286920058
1952,7.284739011941207
1953,8.315143423150069
2,1, 7,21, 0, 4, 0.00,60.00,SummerDesignDay
7,25.230124999999995
652,18.937774058855408
1717,9686.964642892925
1720,2.3997551999999997
1721,0.5133538170110594
1722,1.8864013829889404
1723,11.217679598122239
1724,12.181185880679994
1730,29.133638621760388
1952,7.425962837837838
1953,8.443179794502243
2,1, 7,21, 0, 5, 0.00,60.00,SummerDesignDay
7,24.993416666666673
652,18.881969738794525
1717,9568.109958387302
1720,2.3997551999999997
1721,0.5164273883870931
1722,1.883327811612907
1723,11.264317897886981
1724,12.216015111084527
1730,29.19976953955969
1952,7.544027675604874
1953,8.549436280405859
2,1, 7,21, 0, 6, 0.00,60.00,SummerDesignDay
7,24.996583333333335
652,18.84379441817796
1717,9507.675401340404
1720,2.3997551999999997
1721,0.5106509150727606
1722,1.8891042849272393
1723,11.296695007641713
1724,12.242389845269921
1730,29.32614373000302
1952,7.545573915632698
1953,8.54498064297713
2,1, 7,21, 0, 7, 0.00,60.00,SummerDesignDay
7,25.42804166666666
652,19.203685411719719
1717,10786.312984846874
1720,2.3997551999999997
1721,0.5703930555548342
1722,1.829362144445166
1723,11.003100405699886
1724,12.075886222409553
1730,30.148716170076633
1952,7.335703317964298
1953,8.462196507860295
2,1, 7,21, 0, 8, 0.00,60.00,SummerDesignDay
7,26.575958333333334
652,19.429060221637326
1717,11073.960215637317
1720,2.3997551999999997
1721,0.5464034922990949
1722,1.8533517077009059
1723,10.813123574203625
1724,11.914458211082226
1730,30.200198258273355
1952,6.840959799294429
1953,7.9959988872519009
2,1, 7,21, 0, 9, 0.00,60.00,SummerDesignDay
7,28.287541666666664
652,19.75752234822421
1717,11951.011545422427
1720,2.3997551999999997
1721,0.5930017784815853
1722,1.8067534215184154
1723,10.540307141401986
1724,11.728773831121038
1730,30.200198258273355
1952,6.699999999999995
1953,7.942166944983425
2,1, 7,21, 0,10, 0.00,60.00,SummerDesignDay
7,29.995958333333328
652,20.151085451893246
1717,12994.166524497397
1720,2.3997551999999997
1721,0.6724378366741886
1722,1.7273173633258117
1723,10.213888814050958
1724,11.50597059795313
1730,30.200198258273355
1952,6.699999999999993
1953,8.045777019964803
2,1, 7,21, 0,11, 0.00,60.00,SummerDesignDay
7,31.514374999999995
652,20.701952540243345
1717,14570.435903934256
1720,2.3997551999999997
1721,0.8011242543876826
1722,1.5986309456123167
1723,9.756766509541866
1724,11.20537809566732
1730,30.200198258273355
1952,6.699999999999993
1953,8.202299171576576
2,1, 7,21, 0,12, 0.00,60.00,SummerDesignDay
7,32.697916666666667
652,21.291107562203597
1717,16062.22166288509
1720,2.3997551999999997
1721,0.9526291649926412
1722,1.447126035007358
1723,9.264974298574837
1724,10.861639896074005
1730,30.200198258273355
1952,6.699999999999993
1953,8.35034436519478
2,1, 7,21, 0,13, 0.00,60.00,SummerDesignDay
7,33.55133333333333
652,21.750254412783275
1717,16971.574551246846
1720,2.3997551999999997
1721,1.0807640964762695
1722,1.3189911035237308
1723,8.879850639942749
1724,10.566694689597396
1730,30.200198258273355
1952,6.699999999999993
1953,8.44051591407788
2,1, 7,21, 0,14, 0.00,60.00,SummerDesignDay
7,34.16645833333333
652,22.001048120439756
1717,17194.383326892257
1720,2.3997551999999997
1721,1.1505345343909524
1722,1.249220665609047
1723,8.667690380757684
1724,10.37655936709671
1730,30.200198258273355
1952,6.699999999999993
1953,8.462537048576652
2,1, 7,21, 0,15, 0.00,60.00,SummerDesignDay
7,34.40000000000004
652,22.012920074389567
1717,16741.683506744826
1720,2.3997551999999997
1721,1.139144474704295
1722,1.2606107252957053
1723,8.654410250378758
1724,10.318279925884247
1730,30.200198258273355
1952,6.699999999999993
1953,8.417537499816922
2,1, 7,21, 0,16, 0.00,60.00,SummerDesignDay
7,34.110250000000018
652,21.79729464486781
1717,15769.367594434301
1720,2.3997551999999997
1721,1.052104093707563
1722,1.3476511062924368
1723,8.83133552088258
1724,10.398663694459679
1730,30.200198258273355
1952,6.699999999999993
1953,8.320999168488385
2,1, 7,21, 0,17, 0.00,60.00,SummerDesignDay
7,33.44366666666667
652,21.456037799081874
1717,14735.46112809964
1720,2.3997551999999997
1721,0.9395757841793387
1722,1.4601794158206616
1723,9.115158328934549
1724,10.579864743440366
1730,30.200198258273355
1952,6.699999999999993
1953,8.218382496524006
2,1, 7,21, 0,18, 0.00,60.00,SummerDesignDay
7,32.58708333333333
652,21.110911533004086
1717,13905.400111430545
1720,2.3997551999999997
1721,0.8439635913989814
1722,1.5557916086010193
1723,9.402732906248645
1724,10.785063900462888
1730,30.200198258273355
1952,6.699999999999993
1953,8.136012231549048
2,1, 7,21, 0,19, 0.00,60.00,SummerDesignDay
7,31.395624999999997
652,20.74979300925377
1717,13036.847824508284
1720,2.3997551999999997
1721,0.7538144210622966
1722,1.6459407789377035
1723,9.703235209590654
1724,10.999353574592181
1730,30.200198258273355
1952,6.699999999999993
1953,8.049804990473167
2,1, 7,21, 0,20, 0.00,60.00,SummerDesignDay
7,30.16379166666667
652,20.433922121463288
1717,12455.223399812041
1720,2.3997551999999997
1721,0.6882483739124273
1722,1.7115068260875719
1723,9.967961279934946
1724,11.206363833103718
1730,30.200198258273355
1952,6.699999999999993
1953,7.992093885330139
2,1, 7,21, 0,21, 0.00,60.00,SummerDesignDay
7,29.215374999999999
652,20.16216975197126
1717,11932.062611833682
1720,2.3997551999999997
1721,0.6358524319247751
1722,1.763902768075225
1723,10.194876528435064
1724,11.38134194390559
1730,30.200198258273355
1952,6.699999999999993
1953,7.9401603591814748
2,1, 7,21, 0,22, 0.00,60.00,SummerDesignDay
7,28.360375
652,19.956572170881878
1717,11581.994005937831
1720,2.3997551999999997
1721,0.60035695625363
1722,1.79939824374637
1723,10.367056815844326
1724,11.518770004302569
1730,30.200198258273355
1952,6.699999999999993
1953,7.905410779583294
2,1, 7,21, 0,23, 0.00,60.00,SummerDesignDay
7,27.60195833333334
652,19.494505564510815
1717,10238.756202393282
1720,2.3997551999999997
1721,0.508005803112004
1722,1.8917493968879964
1723,10.747762812034678
1724,11.76601512691094
1730,28.7682383847863
1952,6.699999999999993
1953,7.771955760746006
2,1, 7,21, 0,24, 0.00,60.00,SummerDesignDay
7,26.936958333333334
652,19.314540109129636
1717,10310.368507734109
1720,2.3997551999999997
1721,0.4955964295615445
1722,1.9041587704384556
1723,10.902749175454068
1724,11.928169334493465
1730,28.650585827485576
1952,6.7027041521533159
1953,7.781830140788065
1,RUNPERIOD 1,  33.63, -84.43,  -5.00, 308.00
2,1, 7, 1, 0, 1, 0.00,60.00,Sunday
7,21.118333333333337
652,17.992192077821298
1717,5694.919831154488
1720,0.7199265600000001
1721,0.32298754871923288
1722,0.39693901128076716
1723,11.99516037714736
1724,12.561727034140917
1730,11.98898448937995
1952,9.544848706638259
1953,10.127532148433016
2,1, 7, 1, 0, 2, 0.00,60.00,Sunday
7,22.098333333333334
652,17.98943438273377
1717,5842.754612543078
1720,0.7599224800000002
1721,0.29541699850257638
1722,0.4645054814974237
1723,11.996237831433686
1724,12.577512106672897
1730,11.98898448937995
1952,8.977750850998938
1953,9.576037290540923
2,1, 7, 1, 0, 3, 0.00,60.00,Sunday
7,21.949166666666675
652,17.987922698679264
1717,5720.7526655181059
1720,0.7199265600000001
1721,0.28963093180802559
1722,0.43029562819197439
1723,11.997251458034059
1724,12.566388338916387
1730,11.98898448937995
1952,9.048918642713434
1953,9.63417231458835
2,1, 7, 1, 0, 4, 0.00,60.00,Sunday
7,21.79833333333333
652,17.985040109950459
1717,4870.435738030321
1720,0.5999388000000001
1721,0.2481297866581638
1722,0.35180901334183625
1723,11.997374574418413
1724,12.481916436527227
1730,11.98898448937995
1952,9.119930541232627
1953,9.617903060522105
2,1, 7, 1, 0, 5, 0.00,60.00,Sunday
7,21.700000000000025
652,17.98996417573165
1717,5272.954075516172
1720,0.6399347200000001
1721,0.26980411661208289
1722,0.37013060338791717
1723,11.996519120015856
1724,12.521106266349566
1730,11.98898448937995
1952,9.17646509583132
1953,9.715378281607445
2,1, 7, 1, 0, 6, 0.00,60.00,Sunday
7,21.954166666666663
652,17.990632871716917
1717,6559.014552224284
1720,0.8399143200000002
1721,0.3353222883560019
1722,0.5045920316439981
1723,11.995727798930045
1724,12.648259847026877
1730,13.053366751734659
1952,9.069684761506219
1953,9.741019719215116
2,1, 7, 1, 0, 7, 0.00,60.00,Sunday
7,22.200000000000025
652,18.00389404813293
1717,8606.44266734533
1720,1.4398531200000007
1721,0.47352937709317818
1722,0.9663237429068218
1723,11.993856646372537
1724,12.850079277300056
1730,14.196072998593398
1952,8.930688379318637
1953,9.819144553363169
2,1, 7, 1, 0, 8, 0.00,60.00,Sunday
7,23.31833333333333
652,18.039604589224028
1717,9514.220963016713
1720,2.31976336
1721,0.5279191000050261
1722,1.7918442599949738
1723,11.968404061097912
1724,12.914932295932376
1730,14.299380878260389
1952,8.394853395468698
1953,9.393313099469932
2,1, 7, 1, 0, 9, 0.00,60.00,Sunday
7,25.823333333333335
652,18.301317532293237
1717,9064.714318393962
1720,2.3997551999999997
1721,0.4193431528426869
1722,1.9804120471573126
1723,11.75432440646277
1724,12.656077105658062
1730,14.96283821753285
1952,7.177778821195636
1953,8.13325045170331
2,1, 7, 1, 0,10, 0.00,60.00,Sunday
7,27.759166666666667
652,18.756281167895869
1717,10093.604743506763
1720,2.3997551999999997
1721,0.4471365899235653
1722,1.9526186100764347
1723,11.376228511817603
1724,12.380225582691648
1730,14.451162317284118
1952,6.700000005584965
1953,7.757710189905695
2,1, 7, 1, 0,11, 0.00,60.00,Sunday
7,29.164166666666668
652,19.217441425434648
1717,11107.831149531841
1720,2.3997551999999997
1721,0.5154507521829653
1722,1.884304447817035
1723,10.992727596802136
1724,12.097486748270765
1730,13.407706729050205
1952,6.699999999999993
1953,7.858466365178439
2,1, 7, 1, 0,12, 0.00,60.00,Sunday
7,30.0
652,19.78843681729646
1717,12572.374872265676
1720,2.3997551999999997
1721,0.6180531811029667
1722,1.7817020188970339
1723,10.516640986276137
1724,11.766890192886417
1730,13.504789022556383
1952,6.699999999999993
1953,8.003949098019513
2,1, 7, 1, 0,13, 0.00,60.00,Sunday
7,30.86416666666667
652,20.15688351856867
1717,13055.01937274186
1720,2.3997551999999997
1721,0.6754297227310275
1722,1.724325477268973
1723,10.205220045095404
1724,11.503350824588506
1730,13.298897094125876
1952,6.699999999999993
1953,8.051825882216836
2,1, 7, 1, 0,14, 0.00,60.00,Sunday
7,29.717500000000006
652,20.012437083353086
1717,11797.000079160587
1720,2.3997551999999997
1721,0.6146371979452388
1722,1.785118002054761
1723,10.318601196989033
1724,11.491677280951363
1730,13.355815975748495
1952,6.699999999999993
1953,7.926772930043554
2,1, 7, 1, 0,15, 0.00,60.00,Sunday
7,28.613333333333335
652,19.886812933739497
1717,11625.692258371773
1720,2.3997551999999997
1721,0.5945356034336429
1722,1.8052195965663574
1723,10.427025254480599
1724,11.58310370003397
1730,13.38380907196088
1952,6.699999999999993
1953,7.909776958850704
2,1, 7, 1, 0,16, 0.00,60.00,Sunday
7,28.0275
652,19.647034297537286
1717,10751.920939689615
1720,2.3997551999999997
1721,0.5401596045186857
1722,1.8595955954813135
1723,10.622175199880746
1724,11.691423128366559
1730,13.54937378927723
1952,6.699999999999993
1953,7.8229494428215
2,1, 7, 1, 0,17, 0.00,60.00,Sunday
7,25.276666666666665
652,19.199106939689707
1717,9439.118423427313
1720,2.3997551999999997
1721,0.5245860419402499
1722,1.87516915805975
1723,10.993877416990275
1724,11.932670386802208
1730,14.037220868380242
1952,7.382356417449596
1953,8.374856618682986
2,1, 7, 1, 0,18, 0.00,60.00,Sunday
7,23.594999999999997
652,18.788452879245484
1717,8647.475527106952
1720,2.3997551999999997
1721,0.5530355626135355
1722,1.8467196373864648
1723,11.338536790926698
1724,12.198680659988602
1730,14.427836326433642
1952,8.233382334380554
1953,9.147238736966794
2,1, 7, 1, 0,19, 0.00,60.00,Sunday
7,23.604999999999995
652,18.4607078354303
1717,8065.62772404222
1720,2.3997551999999997
1721,0.49281517994203136
1722,1.9069400200579685
1723,11.611655468949837
1724,12.41398705033521
1730,13.823231043984944
1952,8.2384173912346
1953,9.09446570840736
2,1, 7, 1, 0,20, 0.00,60.00,Sunday
7,21.917500000000005
652,18.14296239627889
1717,6562.951321447754
1720,2.119783760000001
1721,0.46245500524397867
1722,1.6573287547560214
1723,11.875226385439099
1724,12.528124588441433
1730,12.328539110899998
1952,9.024401154178145
1953,9.724752503037049
2,1, 7, 1, 0,21, 0.00,60.00,Sunday
7,20.304999999999994
652,17.996368601965459
1717,4650.949050158224
1720,0.9199061600000003
1721,0.3472665451352451
1722,0.572639614864755
1723,11.996526369607612
1724,12.459232489962755
1730,12.519937171762538
1952,9.882422579602155
1953,10.365722382041565
2,1, 7, 1, 0,22, 0.00,60.00,Sunday
7,20.294999999999996
652,17.990511998186034
1717,4583.5144181194759
1720,0.6799306400000001
1721,0.3011891767573485
1722,0.37874146324265148
1723,11.9974208943318
1724,12.45341806876951
1730,11.995085789905485
1952,9.850337593075539
1953,10.32155618134393
2,1, 7, 1, 0,23, 0.00,60.00,Sunday
7,20.0
652,17.98794666296676
1717,5071.366154531302
1720,0.6799306400000001
1721,0.33138892735319178
1722,0.34854171264680819
1723,11.996702823124137
1724,12.501234552130758
1730,11.995085789905485
1952,10.019408125347827
1953,10.539161266535557
2,1, 7, 1, 0,24, 0.00,60.00,Sunday
7,20.0
652,17.989215153258419
1717,5342.262677500227
1720,0.6799306400000001
1721,0.3401040402412942
1722,0.3398265997587057
1723,11.996497188153646
1724,12.527979509633877
1730,11.995085789905485
1952,10.019819819795334
1953,10.566523555945217
2,2, 7, 2, 0, 1, 0.00,60.00,Monday
7,20.0
652,17.992652425548046
1717,6365.939050959972
1720,0.8399143200000002
1721,0.41294776250023887
1722,0.4269665574997611
1723,11.99492685789537
1724,12.628250523320754
1730,11.995085789905485
1952,10.019819819819825
1953,10.671946394169929
2,2, 7, 2, 0, 2, 0.00,60.00,Monday
7,20.0
652,17.988071664833585
1717,5310.648847821112
1720,0.6799306400000001
1721,0.3390643732728382
1722,0.3408662667271617
1723,11.997071240925444
1724,12.525408370555045
1730,11.995085789905485
1952,10.019819819819825
1953,10.563378362782343
2,2, 7, 2, 0, 3, 0.00,60.00,Monday
7,19.440833333333335
652,17.98791988692975
1717,4636.970613237698
1720,0.55994288
1721,0.3054100455785657
1722,0.25453283442143428
1723,11.99658454470457
1724,12.457900099938737
1730,11.995085789905485
1952,10.24628184466167
1953,10.720132687221586
2,2, 7, 2, 0, 4, 0.00,60.00,Monday
7,19.154166666666666
652,17.98617886760419
1717,4891.518761321054
1720,0.55994288
1721,0.3300025381218897
1722,0.22994034187811036
1723,11.995872500880106
1724,12.482511900926634
1730,11.995085789905485
1952,10.461390380263719
1953,10.960565061796741
2,2, 7, 2, 0, 5, 0.00,60.00,Monday
7,19.399999999999996
652,17.984287409875518
1717,4363.127921007093
1720,0.4799510400000001
1721,0.2770508718170553
1722,0.20290016818294469
1723,11.996701463787919
1724,12.430773335330706
1730,11.995085789905485
1952,10.320142380318304
1953,10.764958782562284
2,2, 7, 2, 0, 6, 0.00,60.00,Monday
7,19.399999999999996
652,17.98893604407612
1717,5474.300928667667
1720,0.5999388000000001
1721,0.34688424002417747
1722,0.2530545599758226
1723,11.99436092269351
1724,12.538979065399273
1730,11.995085789905485
1952,10.317117122510862
1953,10.875165920424429
2,2, 7, 2, 0, 7, 0.00,60.00,Monday
7,19.705
652,18.009999449443936
1717,10350.579217533665
1720,1.6398327200000007
1721,0.7665150390135367
1722,0.8733176809864635
1723,11.989039751429658
1724,13.018778103873144
1730,13.220491069129804
1952,10.175991403956589
1953,11.242440116955124
2,2, 7, 2, 0, 8, 0.00,60.00,Monday
7,21.118333333333337
652,18.915174762156174
1717,12341.047301084838
1720,2.3997551999999997
1721,1.02599140886793
1722,1.3737637911320693
1723,11.255859425800823
1724,12.483366868002794
1730,11.40174603030126
1952,9.483730710822356
1953,10.76494941478446
2,2, 7, 2, 0, 9, 0.00,60.00,Monday
7,23.62333333333333
652,19.178969079649997
1717,10490.04291493276
1720,2.3997551999999997
1721,0.6953548503685011
1722,1.7044003496314984
1723,11.018456331001183
1724,12.061779339943575
1730,11.348582901396402
1952,8.247549536458142
1953,9.344580154859252
2,2, 7, 2, 0,10, 0.00,60.00,Monday
7,25.55916666666667
652,19.62765167454829
1717,11574.959960695067
1720,2.3997551999999997
1721,0.6387263611065746
1722,1.7610288388934257
1723,10.649715230848946
1724,11.800821488442012
1730,11.348582901396402
1952,7.274498035090321
1953,8.479306230594278
2,2, 7, 2, 0,11, 0.00,60.00,Monday
7,26.65916666666666
652,20.110602098765928
1717,12748.17470265455
1720,2.3997551999999997
1721,0.6700712926461354
1722,1.7296839073538644
1723,10.248370336658163
1724,11.51600418427255
1730,11.348582901396402
1952,6.783661685662575
1953,8.104991299544493
2,2, 7, 2, 0,12, 0.00,60.00,Monday
7,28.06416666666667
652,20.659766328212706
1717,14113.673777883534
1720,2.3997551999999997
1721,0.7787126424607964
1722,1.6210425575392045
1723,9.791300692674975
1724,11.194516977326114
1730,11.348582901396402
1952,6.699999999999993
1953,8.156904486475526
2,2, 7, 2, 0,13, 0.00,60.00,Monday
7,29.459166666666666
652,22.76301451091347
1717,20497.933595131595
1720,2.3997551999999997
1721,1.4892706838722608
1722,0.9104845161277402
1723,8.061243768364248
1724,10.098019463988003
1730,11.348582901396402
1952,6.699999999999993
1953,8.79043289347181
2,2, 7, 2, 0,14, 0.00,60.00,Monday
7,29.440833333333328
652,21.5615363293382
1717,13300.031168123363
1720,2.3997551999999997
1721,0.9152996745919745
1722,1.4844555254080255
1723,9.00871133170068
1724,10.330680085897463
1730,11.348582901396402
1952,6.699999999999993
1953,8.075642928692009
2,2, 7, 2, 0,15, 0.00,60.00,Monday
7,29.76416666666667
652,21.439647356820989
1717,14524.711168460173
1720,2.3997551999999997
1721,0.9266699093651464
1722,1.4730852906348536
1723,9.13393502396293
1724,10.577702483111315
1730,11.348582901396402
1952,6.699999999999993
1953,8.197443877729003
2,2, 7, 2, 0,16, 0.00,60.00,Monday
7,30.854166666666669
652,21.413846427572709
1717,14614.530707893744
1720,2.3997551999999997
1721,0.9254848612835314
1722,1.4742703387164682
1723,9.153531099134837
1724,10.606236113495973
1730,11.348582901396402
1952,6.699999999999993
1953,8.206381784208129
2,2, 7, 2, 0,17, 0.00,60.00,Monday
7,30.84583333333334
652,21.243485584710105
1717,14031.942448631762
1720,2.3997551999999997
1721,0.8715734376902252
1722,1.5281817623097749
1723,9.294154344843286
1724,10.689014623317679
1730,11.348582901396402
1952,6.699999999999993
1953,8.14853956923812
2,2, 7, 2, 0,18, 0.00,60.00,Monday
7,30.59999999999997
652,22.75421068895166
1717,19073.141305452547
1720,2.3997551999999997
1721,1.442068535584042
1722,0.9576866644159582
1723,8.060623089185457
1724,9.955821844356463
1730,11.348582901396402
1952,6.699999999999993
1953,8.648855941591729
2,2, 7, 2, 0,19, 0.00,60.00,Monday
7,29.430833333333337
652,20.172026475770378
1717,7680.462416805171
1720,2.3997551999999997
1721,0.47912750033781506
1722,1.9206276996621846
1723,10.147127727107172
1724,10.910794974404827
1730,30.32395870365088
1952,6.699999999999993
1953,7.51736104795713
2,2, 7, 2, 0,20, 0.00,60.00,Monday
7,26.927500000000003
652,18.92300922085931
1717,7128.13797542793
1720,2.3997551999999997
1721,0.35801259262160325
1722,2.0417426073783977
1723,11.21620984180212
1724,11.925204263096977
1730,32.080827964839368
1952,6.806747806659074
1953,7.569452879659845
2,2, 7, 2, 0,21, 0.00,60.00,Monday
7,24.430833333333334
652,18.37819148895917
1717,7342.353513861129
1720,2.3997551999999997
1721,0.40961598192695256
1722,1.9901392180730476
1723,11.678855916244802
1724,12.409253640785004
1730,31.975438706168395
1952,7.8053358271082369
1953,8.589451321563996
2,2, 7, 2, 0,22, 0.00,60.00,Monday
7,23.045833333333339
652,18.06461522455408
1717,7243.151800397402
1720,2.3997551999999997
1721,0.44693828186250997
1722,1.9528169181374904
1723,11.943640001976043
1724,12.664224289558599
1730,21.281146095808734
1952,8.506349810575625
1953,9.280655942923687
2,2, 7, 2, 0,23, 0.00,60.00,Monday
7,22.494999999999999
652,18.000879866836234
1717,5477.221329586738
1720,1.3198653600000006
1721,0.3265966427377248
1722,0.9932687172622752
1723,11.996612288598094
1724,12.541521175665146
1730,12.495754591459493
1952,8.772014451294277
1953,9.34647079117144
2,2, 7, 2, 0,24, 0.00,60.00,Monday
7,21.640833333333334
652,17.99629835394196
1717,5350.541212650597
1720,0.9599020800000003
1721,0.32048551676196437
1722,0.6394165632380354
1723,11.996578091448236
1724,12.528884123657639
1730,11.98972933564233
1952,9.174748912651847
1953,9.728544004842382
End of Data
 Number of Records Written=        1056
