Program Version,EnergyPlus, Version 9.5.0-de239b2e5f, YMD=2021.07.23 02:27
1,5,Environment Title[],Latitude[deg],Longitude[deg],Time Zone[],Elevation[m]
2,8,Day of Simulation[],Month[],Day of Month[],DST Indicator[1=yes 0=no],Hour[],StartMinute[],EndMinute[],DayType
3,5,Cumulative Day of Simulation[],Month[],Day of Month[],DST Indicator[1=yes 0=no],DayType  ! When Daily Report Variables Requested
4,2,Cumulative Days of Simulation[],Month[]  ! When Monthly Report Variables Requested
5,1,Cumulative Days of Simulation[] ! When Run Period Report Variables Requested
6,1,Calendar Year of Simulation[] ! When Annual Report Variables Requested
651,1,PERIMETER_BOT_ZN_1,Zone Mean Air Temperature [C] !Hourly
1716,1,PERI1_TOP_LOTEMP,Zone Radiant HVAC Cooling Rate [W] !Hourly
End of Data Dictionary
1,ATLANTA-HARTSFIELD.JACKSON.INTL.AP_GA_USA ANN HTG 99.6% CONDNS DB,  33.63, -84.43,  -5.00, 308.00
2,1, 1,21, 0, 1, 0.00,60.00,WinterDesignDay
651,16.010609115123445
1716,0.0
2,1, 1,21, 0, 2, 0.00,60.00,WinterDesignDay
651,16.01273822320849
1716,0.0
2,1, 1,21, 0, 3, 0.00,60.00,WinterDesignDay
651,16.009754289396605
1716,0.0
2,1, 1,21, 0, 4, 0.00,60.00,WinterDesignDay
651,16.012345712258907
1716,0.0
2,1, 1,21, 0, 5, 0.00,60.00,WinterDesignDay
651,16.010653707673993
1716,0.0
2,1, 1,21, 0, 6, 0.00,60.00,WinterDesignDay
651,16.010425968216894
1716,0.0
2,1, 1,21, 0, 7, 0.00,60.00,WinterDesignDay
651,16.073699118345567
1716,0.0
2,1, 1,21, 0, 8, 0.00,60.00,WinterDesignDay
651,16.028001835787124
1716,0.0
2,1, 1,21, 0, 9, 0.00,60.00,WinterDesignDay
651,16.02311659245585
1716,0.0
2,1, 1,21, 0,10, 0.00,60.00,WinterDesignDay
651,16.022960354199978
1716,0.0
2,1, 1,21, 0,11, 0.00,60.00,WinterDesignDay
651,16.0212300000227
1716,0.0
2,1, 1,21, 0,12, 0.00,60.00,WinterDesignDay
651,16.02219149250126
1716,0.0
2,1, 1,21, 0,13, 0.00,60.00,WinterDesignDay
651,16.02128655571646
1716,0.0
2,1, 1,21, 0,14, 0.00,60.00,WinterDesignDay
651,16.021937386698668
1716,0.0
2,1, 1,21, 0,15, 0.00,60.00,WinterDesignDay
651,16.02298533338868
1716,0.0
2,1, 1,21, 0,16, 0.00,60.00,WinterDesignDay
651,16.023022653318649
1716,0.0
2,1, 1,21, 0,17, 0.00,60.00,WinterDesignDay
651,16.02215085413572
1716,0.0
2,1, 1,21, 0,18, 0.00,60.00,WinterDesignDay
651,16.021691027472888
1716,0.0
2,1, 1,21, 0,19, 0.00,60.00,WinterDesignDay
651,16.000237940764867
1716,0.0
2,1, 1,21, 0,20, 0.00,60.00,WinterDesignDay
651,16.013380470832599
1716,0.0
2,1, 1,21, 0,21, 0.00,60.00,WinterDesignDay
651,16.01318963163228
1716,0.0
2,1, 1,21, 0,22, 0.00,60.00,WinterDesignDay
651,16.012820823247055
1716,0.0
2,1, 1,21, 0,23, 0.00,60.00,WinterDesignDay
651,16.010536285360084
1716,0.0
2,1, 1,21, 0,24, 0.00,60.00,WinterDesignDay
651,16.010203303875249
1716,0.0
1,ATLANTA-HARTSFIELD.JACKSON.INTL.AP_GA_USA ANN CLG .4% CONDNS DB=>MWB,  33.63, -84.43,  -5.00, 308.00
2,1, 7,21, 0, 1, 0.00,60.00,SummerDesignDay
651,20.398511189010756
1716,9177.34452961849
2,1, 7,21, 0, 2, 0.00,60.00,SummerDesignDay
651,20.27182992424639
1716,8998.715738667881
2,1, 7,21, 0, 3, 0.00,60.00,SummerDesignDay
651,20.171588314298505
1716,8847.5612415892
2,1, 7,21, 0, 4, 0.00,60.00,SummerDesignDay
651,20.08603517440484
1716,8711.80555165163
2,1, 7,21, 0, 5, 0.00,60.00,SummerDesignDay
651,20.01112015698529
1716,8589.41192183179
2,1, 7,21, 0, 6, 0.00,60.00,SummerDesignDay
651,19.956175526771124
1716,8498.809331537701
2,1, 7,21, 0, 7, 0.00,60.00,SummerDesignDay
651,20.339234503048325
1716,9091.51497274972
2,1, 7,21, 0, 8, 0.00,60.00,SummerDesignDay
651,20.59731484496972
1716,9431.78396438934
2,1, 7,21, 0, 9, 0.00,60.00,SummerDesignDay
651,20.970831918444753
1716,10020.56730148332
2,1, 7,21, 0,10, 0.00,60.00,SummerDesignDay
651,21.428698756664156
1716,10764.689421640905
2,1, 7,21, 0,11, 0.00,60.00,SummerDesignDay
651,22.076962849862949
1716,11854.501128214539
2,1, 7,21, 0,12, 0.00,60.00,SummerDesignDay
651,22.787556433572655
1716,13054.691874283248
2,1, 7,21, 0,13, 0.00,60.00,SummerDesignDay
651,23.367106291859384
1716,13569.519576793786
2,1, 7,21, 0,14, 0.00,60.00,SummerDesignDay
651,23.76515220651448
1716,13496.698738228935
2,1, 7,21, 0,15, 0.00,60.00,SummerDesignDay
651,23.901047048013955
1716,13492.862718822978
2,1, 7,21, 0,16, 0.00,60.00,SummerDesignDay
651,23.731660227610683
1716,13483.8588145985
2,1, 7,21, 0,17, 0.00,60.00,SummerDesignDay
651,23.337563634323275
1716,13474.880681650415
2,1, 7,21, 0,18, 0.00,60.00,SummerDesignDay
651,22.860318076402437
1716,13268.08926477549
2,1, 7,21, 0,19, 0.00,60.00,SummerDesignDay
651,22.36219960046794
1716,12278.957219227495
2,1, 7,21, 0,20, 0.00,60.00,SummerDesignDay
651,21.949275404843399
1716,11523.043997173429
2,1, 7,21, 0,21, 0.00,60.00,SummerDesignDay
651,21.60840094899975
1716,10963.67294545199
2,1, 7,21, 0,22, 0.00,60.00,SummerDesignDay
651,21.34867650610748
1716,10556.092622261796
2,1, 7,21, 0,23, 0.00,60.00,SummerDesignDay
651,20.81402507551475
1716,9717.24652953078
2,1, 7,21, 0,24, 0.00,60.00,SummerDesignDay
651,20.572373541599807
1716,9410.655414057854
1,RUNPERIOD 1,  33.63, -84.43,  -5.00, 308.00
2,1, 7, 1, 0, 1, 0.00,60.00,Sunday
651,22.1421748393815
1716,0.0
2,1, 7, 1, 0, 2, 0.00,60.00,Sunday
651,21.681802201023169
1716,13527.794412582058
2,1, 7, 1, 0, 3, 0.00,60.00,Sunday
651,20.941297543277096
1716,13445.5283748482
2,1, 7, 1, 0, 4, 0.00,60.00,Sunday
651,20.874876552573068
1716,0.0
2,1, 7, 1, 0, 5, 0.00,60.00,Sunday
651,20.75499703806666
1716,13502.86879677322
2,1, 7, 1, 0, 6, 0.00,60.00,Sunday
651,20.422789869186429
1716,13073.402165062842
2,1, 7, 1, 0, 7, 0.00,60.00,Sunday
651,20.74227790753066
1716,0.0
2,1, 7, 1, 0, 8, 0.00,60.00,Sunday
651,21.346902127441589
1716,0.0
2,1, 7, 1, 0, 9, 0.00,60.00,Sunday
651,22.027745713364064
1716,0.0
2,1, 7, 1, 0,10, 0.00,60.00,Sunday
651,22.81778682732809
1716,0.0
2,1, 7, 1, 0,11, 0.00,60.00,Sunday
651,23.56142523565737
1716,0.0
2,1, 7, 1, 0,12, 0.00,60.00,Sunday
651,23.995293740386186
1716,13799.045764095321
2,1, 7, 1, 0,13, 0.00,60.00,Sunday
651,24.11217498793714
1716,13455.121884270835
2,1, 7, 1, 0,14, 0.00,60.00,Sunday
651,24.22687245362677
1716,0.0
2,1, 7, 1, 0,15, 0.00,60.00,Sunday
651,24.489583958601189
1716,0.0
2,1, 7, 1, 0,16, 0.00,60.00,Sunday
651,24.460039187666888
1716,0.0
2,1, 7, 1, 0,17, 0.00,60.00,Sunday
651,24.074105069200514
1716,0.0
2,1, 7, 1, 0,18, 0.00,60.00,Sunday
651,23.669657217724457
1716,0.0
2,1, 7, 1, 0,19, 0.00,60.00,Sunday
651,23.33656825366103
1716,0.0
2,1, 7, 1, 0,20, 0.00,60.00,Sunday
651,22.98912338645953
1716,0.0
2,1, 7, 1, 0,21, 0.00,60.00,Sunday
651,22.549899125498098
1716,0.0
2,1, 7, 1, 0,22, 0.00,60.00,Sunday
651,22.387764263531034
1716,0.0
2,1, 7, 1, 0,23, 0.00,60.00,Sunday
651,22.27348306293307
1716,0.0
2,1, 7, 1, 0,24, 0.00,60.00,Sunday
651,22.17363011080419
1716,0.0
2,2, 7, 2, 0, 1, 0.00,60.00,Monday
651,21.684753496358018
1716,13526.682988366958
2,2, 7, 2, 0, 2, 0.00,60.00,Monday
651,20.954554830266379
1716,13446.142195745872
2,2, 7, 2, 0, 3, 0.00,60.00,Monday
651,20.530358937073957
1716,13454.987385189774
2,2, 7, 2, 0, 4, 0.00,60.00,Monday
651,20.163303684432696
1716,13452.17188295716
2,2, 7, 2, 0, 5, 0.00,60.00,Monday
651,19.84080589506033
1716,13411.490756885407
2,2, 7, 2, 0, 6, 0.00,60.00,Monday
651,19.491300426857614
1716,11829.613026584462
2,2, 7, 2, 0, 7, 0.00,60.00,Monday
651,19.249755619563314
1716,9450.59638455672
2,2, 7, 2, 0, 8, 0.00,60.00,Monday
651,19.901698623261699
1716,9335.927741417467
2,2, 7, 2, 0, 9, 0.00,60.00,Monday
651,20.528701972225158
1716,9717.599693620807
2,2, 7, 2, 0,10, 0.00,60.00,Monday
651,21.011945405589377
1716,10191.747987298631
2,2, 7, 2, 0,11, 0.00,60.00,Monday
651,21.512018654164174
1716,10859.945268804438
2,2, 7, 2, 0,12, 0.00,60.00,Monday
651,22.094788794368517
1716,11754.632577709877
2,2, 7, 2, 0,13, 0.00,60.00,Monday
651,24.068798801579868
1716,13521.73020094174
2,2, 7, 2, 0,14, 0.00,60.00,Monday
651,23.229568904593458
1716,13389.905909109137
2,2, 7, 2, 0,15, 0.00,60.00,Monday
651,23.036642448030944
1716,13126.058105631872
2,2, 7, 2, 0,16, 0.00,60.00,Monday
651,22.97586110447439
1716,12943.704945309857
2,2, 7, 2, 0,17, 0.00,60.00,Monday
651,22.77208462428499
1716,12543.732591873273
2,2, 7, 2, 0,18, 0.00,60.00,Monday
651,24.062722897606436
1716,13505.95881976754
2,2, 7, 2, 0,19, 0.00,60.00,Monday
651,21.6762069692951
1716,10472.703591499163
2,2, 7, 2, 0,20, 0.00,60.00,Monday
651,20.195804260765759
1716,8282.720087554213
2,2, 7, 2, 0,21, 0.00,60.00,Monday
651,19.491915616857399
1716,7422.142524363644
2,2, 7, 2, 0,22, 0.00,60.00,Monday
651,19.088094522220634
1716,6953.569976873883
2,2, 7, 2, 0,23, 0.00,60.00,Monday
651,18.881311982865005
1716,6732.019469724751
2,2, 7, 2, 0,24, 0.00,60.00,Monday
651,18.687760073814105
1716,6464.315291194154
End of Data
 Number of Records Written=         192
