Program Version,EnergyPlus, Version 9.5.0-de239b2e5f, YMD=2021.07.22 03:26
1,5,Environment Title[],Latitude[deg],Longitude[deg],Time Zone[],Elevation[m]
2,8,Day of Simulation[],Month[],Day of Month[],DST Indicator[1=yes 0=no],Hour[],StartMinute[],EndMinute[],DayType
3,5,Cumulative Day of Simulation[],Month[],Day of Month[],DST Indicator[1=yes 0=no],DayType  ! When Daily Meters Requested
4,2,Cumulative Days of Simulation[],Month[]  ! When Monthly Meters Requested
5,1,Cumulative Days of Simulation[] ! When Run Period Meters Requested
6,1,Calendar Year of Simulation[] ! When Annual Meters Requested
10,1,Electricity:Facility [J] !Hourly
1509,1,ElectricityNet:Facility [J] !Hourly
46,1,InteriorLights:Electricity [J] !Hourly
433,1,InteriorEquipment:Electricity [J] !Hourly
End of Data Dictionary
1,ATLANTA-HARTSFIELD.JACKSON.INTL.AP_GA_USA ANN HTG 99.6% CONDNS DB,  33.63, -84.43,  -5.00, 308.00
2,1, 1,21, 0, 1, 0.00,60.00,WinterDesignDay
10,114085554.49409275
46,0.0
433,0.0
1509,114085554.49409275
2,1, 1,21, 0, 2, 0.00,60.00,WinterDesignDay
10,114078354.49409275
46,0.0
433,0.0
1509,114078354.49409275
2,1, 1,21, 0, 3, 0.00,60.00,WinterDesignDay
10,114092754.49409275
46,0.0
433,0.0
1509,114092754.49409275
2,1, 1,21, 0, 4, 0.00,60.00,WinterDesignDay
10,114078354.49409275
46,0.0
433,0.0
1509,114078354.49409275
2,1, 1,21, 0, 5, 0.00,60.00,WinterDesignDay
10,114085554.49409275
46,0.0
433,0.0
1509,114085554.49409275
2,1, 1,21, 0, 6, 0.00,60.00,WinterDesignDay
10,114092754.49409275
46,0.0
433,0.0
1509,114092754.49409275
2,1, 1,21, 0, 7, 0.00,60.00,WinterDesignDay
10,124345014.49409275
46,0.0
433,0.0
1509,124345014.49409272
2,1, 1,21, 0, 8, 0.00,60.00,WinterDesignDay
10,119653764.49409275
46,0.0
433,0.0
1509,119653764.49409272
2,1, 1,21, 0, 9, 0.00,60.00,WinterDesignDay
10,105529614.49409274
46,0.0
433,0.0
1509,105529614.49409274
2,1, 1,21, 0,10, 0.00,60.00,WinterDesignDay
10,105529614.49409274
46,0.0
433,0.0
1509,105529614.49409274
2,1, 1,21, 0,11, 0.00,60.00,WinterDesignDay
10,105529614.49409274
46,0.0
433,0.0
1509,105529614.49409274
2,1, 1,21, 0,12, 0.00,60.00,WinterDesignDay
10,105529614.49409274
46,0.0
433,0.0
1509,105529614.49409274
2,1, 1,21, 0,13, 0.00,60.00,WinterDesignDay
10,105536814.49409274
46,0.0
433,0.0
1509,105536814.49409274
2,1, 1,21, 0,14, 0.00,60.00,WinterDesignDay
10,105536814.49409274
46,0.0
433,0.0
1509,105536814.49409274
2,1, 1,21, 0,15, 0.00,60.00,WinterDesignDay
10,105529614.49409274
46,0.0
433,0.0
1509,105529614.49409274
2,1, 1,21, 0,16, 0.00,60.00,WinterDesignDay
10,105529614.49409274
46,0.0
433,0.0
1509,105529614.49409274
2,1, 1,21, 0,17, 0.00,60.00,WinterDesignDay
10,105529614.49409274
46,0.0
433,0.0
1509,105529614.49409274
2,1, 1,21, 0,18, 0.00,60.00,WinterDesignDay
10,108043134.49409274
46,0.0
433,0.0
1509,108043134.49409274
2,1, 1,21, 0,19, 0.00,60.00,WinterDesignDay
10,124510614.49409275
46,0.0
433,0.0
1509,124510614.49409272
2,1, 1,21, 0,20, 0.00,60.00,WinterDesignDay
10,116630934.49409275
46,0.0
433,0.0
1509,116630934.49409275
2,1, 1,21, 0,21, 0.00,60.00,WinterDesignDay
10,116638134.49409275
46,0.0
433,0.0
1509,116638134.49409275
2,1, 1,21, 0,22, 0.00,60.00,WinterDesignDay
10,116623734.49409275
46,0.0
433,0.0
1509,116623734.49409275
2,1, 1,21, 0,23, 0.00,60.00,WinterDesignDay
10,116638134.49409275
46,0.0
433,0.0
1509,116638134.49409275
2,1, 1,21, 0,24, 0.00,60.00,WinterDesignDay
10,116638134.49409275
46,0.0
433,0.0
1509,116638134.49409275
1,ATLANTA-HARTSFIELD.JACKSON.INTL.AP_GA_USA ANN CLG .4% CONDNS DB=>MWB,  33.63, -84.43,  -5.00, 308.00
2,1, 7,21, 0, 1, 0.00,60.00,SummerDesignDay
10,518569701.7582477
46,152517470.7542746
433,224813060.55296675
1509,518569701.7582477
2,1, 7,21, 0, 2, 0.00,60.00,SummerDesignDay
10,518617701.7582477
46,152517470.7542746
433,224813060.55296675
1509,518617701.7582477
2,1, 7,21, 0, 3, 0.00,60.00,SummerDesignDay
10,518689701.7582477
46,152517470.7542746
433,224813060.55296675
1509,518689701.7582477
2,1, 7,21, 0, 4, 0.00,60.00,SummerDesignDay
10,518779701.7582477
46,152517470.7542746
433,224813060.55296675
1509,518779701.7582477
2,1, 7,21, 0, 5, 0.00,60.00,SummerDesignDay
10,518869701.7582477
46,152517470.7542746
433,224813060.55296675
1509,518869701.7582477
2,1, 7,21, 0, 6, 0.00,60.00,SummerDesignDay
10,516629297.51664856
46,152399851.51267544
433,224813060.55296675
1509,516629297.51664856
2,1, 7,21, 0, 7, 0.00,60.00,SummerDesignDay
10,486106260.6839891
46,129457169.68001552
433,224813060.55296675
1509,486106260.6839891
2,1, 7,21, 0, 8, 0.00,60.00,SummerDesignDay
10,476989399.0868622
46,120340308.08288898
433,224813060.55296675
1509,476989399.0868622
2,1, 7,21, 0, 9, 0.00,60.00,SummerDesignDay
10,469215409.09644469
46,119991185.40467149
433,224813060.55296675
1509,469215409.09644469
2,1, 7,21, 0,10, 0.00,60.00,SummerDesignDay
10,459868736.45741429
46,119991185.40467149
433,224813060.55296675
1509,459868736.45741429
2,1, 7,21, 0,11, 0.00,60.00,SummerDesignDay
10,459868736.45741429
46,119991185.40467149
433,224813060.55296675
1509,459868736.45741429
2,1, 7,21, 0,12, 0.00,60.00,SummerDesignDay
10,459868736.45741429
46,119991185.40467149
433,224813060.55296675
1509,459868736.45741429
2,1, 7,21, 0,13, 0.00,60.00,SummerDesignDay
10,459868736.45741429
46,119991185.40467149
433,224813060.55296675
1509,459868736.45741429
2,1, 7,21, 0,14, 0.00,60.00,SummerDesignDay
10,459868736.45741429
46,119991185.40467149
433,224813060.55296675
1509,459868736.45741429
2,1, 7,21, 0,15, 0.00,60.00,SummerDesignDay
10,459892736.45741429
46,119991185.40467149
433,224813060.55296675
1509,459892736.45741429
2,1, 7,21, 0,16, 0.00,60.00,SummerDesignDay
10,459868736.45741429
46,119991185.40467149
433,224813060.55296675
1509,459868736.45741429
2,1, 7,21, 0,17, 0.00,60.00,SummerDesignDay
10,459892736.45741429
46,119991185.40467149
433,224813060.55296675
1509,459892736.45741429
2,1, 7,21, 0,18, 0.00,60.00,SummerDesignDay
10,459902992.2258166
46,120025441.17307365
433,224813060.55296675
1509,459902992.2258166
2,1, 7,21, 0,19, 0.00,60.00,SummerDesignDay
10,462145697.58519998
46,122268146.53245703
433,224813060.55296675
1509,462145697.5852
2,1, 7,21, 0,20, 0.00,60.00,SummerDesignDay
10,489987632.9410856
46,146615183.8883431
433,224813060.55296675
1509,489987632.9410856
2,1, 7,21, 0,21, 0.00,60.00,SummerDesignDay
10,503431541.807017
46,152517470.7542746
433,224813060.55296675
1509,503431541.807017
2,1, 7,21, 0,22, 0.00,60.00,SummerDesignDay
10,503431541.807017
46,152517470.7542746
433,224813060.55296675
1509,503431541.807017
2,1, 7,21, 0,23, 0.00,60.00,SummerDesignDay
10,519817356.0923939
46,152517470.7542746
433,224813060.55296675
1509,519817356.0923938
2,1, 7,21, 0,24, 0.00,60.00,SummerDesignDay
10,520839081.7582477
46,152517470.7542746
433,224813060.55296675
1509,520839081.7582477
1,RUNPERIOD 1,  33.63, -84.43,  -5.00, 308.00
2,1, 7, 1, 0, 1, 0.00,60.00,Sunday
10,55506034.19701903
46,7625873.53771374
433,33399901.50135806
1509,55506034.19701903
2,1, 7, 1, 0, 2, 0.00,60.00,Sunday
10,58452141.812895048
46,7625873.53771374
433,33399901.50135806
1509,58452141.812895048
2,1, 7, 1, 0, 3, 0.00,60.00,Sunday
10,58952159.74887437
46,7625873.53771374
433,33399901.50135806
1509,58952159.74887437
2,1, 7, 1, 0, 4, 0.00,60.00,Sunday
10,61452249.428771037
46,7625873.53771374
433,33399901.50135806
1509,61452249.42877103
2,1, 7, 1, 0, 5, 0.00,60.00,Sunday
10,59952195.62083304
46,7625873.53771374
433,33399901.50135806
1509,59952195.62083303
2,1, 7, 1, 0, 6, 0.00,60.00,Sunday
10,61977873.92541201
46,7413329.546520042
433,33399901.50135806
1509,61977873.92541201
2,1, 7, 1, 0, 7, 0.00,60.00,Sunday
10,80187753.73356344
46,5390491.487484721
433,41385398.908734139
1509,80187753.7335634
2,1, 7, 1, 0, 8, 0.00,60.00,Sunday
10,79345146.59276873
46,5204671.525274598
433,41385398.908734139
1509,79345146.59276873
2,1, 7, 1, 0, 9, 0.00,60.00,Sunday
10,80974988.41308771
46,5173573.547439724
433,41385398.908734139
1509,80974988.41308771
2,1, 7, 1, 0,10, 0.00,60.00,Sunday
10,81484988.41308771
46,5173573.547439724
433,41385398.908734139
1509,81484988.41308771
2,1, 7, 1, 0,11, 0.00,60.00,Sunday
10,81544988.41308771
46,5173573.547439724
433,41385398.908734139
1509,81544988.41308771
2,1, 7, 1, 0,12, 0.00,60.00,Sunday
10,81466988.41308771
46,5173573.547439724
433,41385398.908734139
1509,81466988.41308771
2,1, 7, 1, 0,13, 0.00,60.00,Sunday
10,81484988.41308771
46,5173573.547439724
433,41385398.908734139
1509,81484988.41308771
2,1, 7, 1, 0,14, 0.00,60.00,Sunday
10,81544988.41308771
46,5173573.547439724
433,41385398.908734139
1509,81544988.41308771
2,1, 7, 1, 0,15, 0.00,60.00,Sunday
10,81436988.41308771
46,5173573.547439724
433,41385398.908734139
1509,81436988.41308771
2,1, 7, 1, 0,16, 0.00,60.00,Sunday
10,81365525.49719756
46,5174110.6315495599
433,41385398.908734139
1509,81365525.49719756
2,1, 7, 1, 0,17, 0.00,60.00,Sunday
10,81356498.19246152
46,5231083.3268135399
433,41385398.908734139
1509,81356498.19246152
2,1, 7, 1, 0,18, 0.00,60.00,Sunday
10,80669973.42997577
46,5282558.564327782
433,41385398.908734139
1509,80669973.42997575
2,1, 7, 1, 0,19, 0.00,60.00,Sunday
10,71496393.89520212
46,6361416.235084032
433,33399901.50135806
1509,71496393.8952021
2,1, 7, 1, 0,20, 0.00,60.00,Sunday
10,60554261.13627284
46,7515599.885422203
433,33399901.50135806
1509,60554261.13627284
2,1, 7, 1, 0,21, 0.00,60.00,Sunday
10,68015772.91660571
46,7625873.53771374
433,33399901.50135806
1509,68015772.91660571
2,1, 7, 1, 0,22, 0.00,60.00,Sunday
10,66997737.04464702
46,7625873.53771374
433,33399901.50135806
1509,66997737.04464702
2,1, 7, 1, 0,23, 0.00,60.00,Sunday
10,62503575.620833028
46,7625873.53771374
433,33399901.50135806
1509,62503575.620833028
2,1, 7, 1, 0,24, 0.00,60.00,Sunday
10,62009557.684853699
46,7625873.53771374
433,33399901.50135806
1509,62009557.684853699
2,2, 7, 2, 0, 1, 0.00,60.00,Monday
10,89772159.75252109
46,7625873.53771374
433,44533202.00181081
1509,89772159.75252107
2,2, 7, 2, 0, 2, 0.00,60.00,Monday
10,72585549.92922372
46,7625873.53771374
433,44533202.00181081
1509,72585549.92922372
2,2, 7, 2, 0, 3, 0.00,60.00,Monday
10,70585478.18530639
46,7625873.53771374
433,44533202.00181081
1509,70585478.18530639
2,2, 7, 2, 0, 4, 0.00,60.00,Monday
10,70585478.18530636
46,7625873.53771374
433,44533202.00181081
1509,70585478.18530636
2,2, 7, 2, 0, 5, 0.00,60.00,Monday
10,71585514.05726503
46,7625873.53771374
433,44533202.00181081
1509,71585514.05726503
2,2, 7, 2, 0, 6, 0.00,60.00,Monday
10,77751484.33889611
46,15251747.07542748
433,44533202.00181081
1509,77751484.3388961
2,2, 7, 2, 0, 7, 0.00,60.00,Monday
10,98892219.11845051
46,12081689.219203884
433,55180531.87831209
1509,98892219.1184505
2,2, 7, 2, 0, 8, 0.00,60.00,Monday
10,256745122.64539019
46,31130404.104440474
433,95796493.41677362
1509,256745122.64539019
2,2, 7, 2, 0, 9, 0.00,60.00,Monday
10,429038018.0640903
46,93124323.85391505
433,204227663.7591696
1509,429038018.0640903
2,2, 7, 2, 0,10, 0.00,60.00,Monday
10,398938160.92123386
46,93124323.85391505
433,174055806.61631225
1509,398938160.92123386
2,2, 7, 2, 0,11, 0.00,60.00,Monday
10,391945424.65749737
46,93124323.85391505
433,167093070.3525762
1509,391945424.6574972
2,2, 7, 2, 0,12, 0.00,60.00,Monday
10,398788160.92123386
46,93124323.85391505
433,174055806.61631225
1509,398788160.92123386
2,2, 7, 2, 0,13, 0.00,60.00,Monday
10,401065240.28172698
46,93124323.85391505
433,177667514.30607493
1509,401065240.28172698
2,2, 7, 2, 0,14, 0.00,60.00,Monday
10,388046901.18978378
46,93124323.85391505
433,179858086.83609239
1509,388046901.18978378
2,2, 7, 2, 0,15, 0.00,60.00,Monday
10,375281884.70626738
46,93124323.85391505
433,167093070.3525762
1509,375281884.70626738
2,2, 7, 2, 0,16, 0.00,60.00,Monday
10,375281884.70626738
46,93124323.85391505
433,167093070.3525762
1509,375281884.70626738
2,2, 7, 2, 0,17, 0.00,60.00,Monday
10,385725989.1018714
46,93124323.85391505
433,177537174.74818046
1509,385725989.1018714
2,2, 7, 2, 0,18, 0.00,60.00,Monday
10,309639672.3110607
46,51749162.5771431
433,140923939.57316477
1509,309639672.3110607
2,2, 7, 2, 0,19, 0.00,60.00,Monday
10,232394649.64930154
46,31518614.792510638
433,69106004.40578471
1509,232394649.64930154
2,2, 7, 2, 0,20, 0.00,60.00,Monday
10,231984162.16749893
46,37382529.66235644
433,59822356.054136309
1509,231984162.1674989
2,2, 7, 2, 0,21, 0.00,60.00,Monday
10,230138850.4008754
46,26303943.895732464
433,59822356.054136309
1509,230138850.4008754
2,2, 7, 2, 0,22, 0.00,60.00,Monday
10,115008396.61320506
46,26303943.895732464
433,55180531.87831209
1509,115008396.61320506
2,2, 7, 2, 0,23, 0.00,60.00,Monday
10,104562824.55134017
46,13151971.947866232
433,55180531.87831209
1509,104562824.55134017
2,2, 7, 2, 0,24, 0.00,60.00,Monday
10,89264533.66575839
46,6575985.973933116
433,55180531.87831209
1509,89264533.66575839
End of Data
 Number of Records Written=         384
