Program Version,EnergyPlus, Version 9.5.0-de239b2e5f, YMD=2021.07.19 23:36
1,5,Environment Title[],Latitude[deg],Longitude[deg],Time Zone[],Elevation[m]
2,8,Day of Simulation[],Month[],Day of Month[],DST Indicator[1=yes 0=no],Hour[],StartMinute[],EndMinute[],DayType
3,5,Cumulative Day of Simulation[],Month[],Day of Month[],DST Indicator[1=yes 0=no],DayType  ! When Daily Report Variables Requested
4,2,Cumulative Days of Simulation[],Month[]  ! When Monthly Report Variables Requested
5,1,Cumulative Days of Simulation[] ! When Run Period Report Variables Requested
6,1,Calendar Year of Simulation[] ! When Annual Report Variables Requested
7,1,Environment,Site Outdoor Air Drybulb Temperature [C] !Hourly
652,1,PERIMETER_BOT_ZN_1,Zone Mean Air Temperature [C] !Hourly
1717,1,PERI1_TOP_LOTEMP,Zone Radiant HVAC Cooling Rate [W] !Hourly
1720,1,PERI1_TOP_LOTEMP,Zone Radiant HVAC Mass Flow Rate [kg/s] !Hourly
1721,1,PERI1_TOP_LOTEMP,Zone Radiant HVAC Injection Mass Flow Rate [kg/s] !Hourly
1722,1,PERI1_TOP_LOTEMP,Zone Radiant HVAC Recirculation Mass Flow Rate [kg/s] !Hourly
1723,1,PERI1_TOP_LOTEMP,Zone Radiant HVAC Inlet Temperature [C] !Hourly
1724,1,PERI1_TOP_LOTEMP,Zone Radiant HVAC Outlet Temperature [C] !Hourly
1730,1,PERI2_TOP_LOTEMP,Zone Radiant HVAC Outlet Temperature [C] !Hourly
1952,1,PERI1_TOP_LOTEMP_CHW_INLET,System Node Temperature [C] !Hourly
1953,1,PERI1_TOP_LOTEMP_CHW_OUTLET,System Node Temperature [C] !Hourly
End of Data Dictionary
1,ATLANTA-HARTSFIELD.JACKSON.INTL.AP_GA_USA ANN HTG 99.6% CONDNS DB,  33.63, -84.43,  -5.00, 308.00
2,1, 1,21, 0, 1, 0.00,60.00,WinterDesignDay
7,-6.300000000000007
652,16.010609115123445
1717,0.0
1720,0.15232947013333335
1721,0.02488194441315656
1722,0.12744752572017679
1723,30.079382597406047
1724,27.201924699105157
1730,40.8478521185969
1952,12.92878363827891
1953,12.92878363827891
2,1, 1,21, 0, 2, 0.00,60.00,WinterDesignDay
7,-6.300000000000007
652,16.01273822320849
1717,0.0
1720,0.1433689130666667
1721,0.023379979485560276
1722,0.1199889335811064
1723,30.069259792964968
1724,27.36613550872097
1730,40.847169716203179
1952,12.92878363827891
1953,12.92878363827891
2,1, 1,21, 0, 3, 0.00,60.00,WinterDesignDay
7,-6.300000000000007
652,16.009754289396605
1717,0.0
1720,0.1612900272
1721,0.026354789493765786
1722,0.13493523770623426
1723,30.0841053941916
1724,27.036498633292003
1730,40.84655177627316
1952,12.92878363827891
1953,12.92878363827891
2,1, 1,21, 0, 4, 0.00,60.00,WinterDesignDay
7,-6.300000000000007
652,16.012345712258907
1717,0.0
1720,0.1433689130666667
1721,0.023405166418221724
1722,0.11996374664844496
1723,30.060048497096419
1724,27.35309865009221
1730,40.84599047015952
1952,12.92878363827891
1953,12.92878363827891
2,1, 1,21, 0, 5, 0.00,60.00,WinterDesignDay
7,-6.300000000000007
652,16.010653707673993
1717,0.0
1720,0.15232947013333335
1721,0.024911031019644395
1722,0.12741843911368895
1723,30.089785192705006
1724,27.209362874453445
1730,40.84547994137283
1952,12.92878363827891
1953,12.92878363827891
2,1, 1,21, 0, 6, 0.00,60.00,WinterDesignDay
7,-6.300000000000007
652,16.010425968216894
1717,0.0
1720,0.1612900272
1721,0.026346745363186716
1722,0.13494328183681329
1723,30.07455333460962
1724,27.02775983294358
1730,40.84501466202039
1952,12.92878363827891
1953,12.92878363827891
2,1, 1,21, 0, 7, 0.00,60.00,WinterDesignDay
7,-6.300000000000007
652,16.073699118345567
1717,0.0
1720,0.026881671200000003
1721,0.004545817273392907
1722,0.022335853926607097
1723,30.083041682519825
1724,29.553151373821028
1730,40.85634532840337
1952,12.92878363827891
1953,12.92878363827891
2,1, 1,21, 0, 8, 0.00,60.00,WinterDesignDay
7,-6.300000000000007
652,16.028001835787124
1717,0.0
1720,0.053763342400000007
1721,0.00907130454787875
1722,0.04469203785212125
1723,30.01710263065029
1724,28.960210681353474
1730,40.86430005759646
1952,12.92878363827891
1953,12.92878363827891
2,1, 1,21, 0, 9, 0.00,60.00,WinterDesignDay
7,-6.300000000000007
652,16.02311659245585
1717,0.0
1720,0.07168445653333335
1721,0.012115558706423028
1722,0.05956889782691031
1723,30.041617859308077
1724,28.630172480891735
1730,40.86644867532896
1952,12.92878363827891
1953,12.92878363827891
2,1, 1,21, 0,10, 0.00,60.00,WinterDesignDay
7,-6.300000000000007
652,16.022960354199978
1717,0.0
1720,0.07168445653333335
1721,0.012104302486088608
1722,0.05958015404724473
1723,30.03801987972736
1724,28.628024646772464
1730,40.8676910695514
1952,12.92878363827891
1953,12.92878363827891
2,1, 1,21, 0,11, 0.00,60.00,WinterDesignDay
7,-6.300000000000007
652,16.0212300000227
1717,0.0
1720,0.07168445653333335
1721,0.012121674549151689
1722,0.059562781984181658
1723,30.054968290325996
1724,28.643013536804486
1730,40.868609028008517
1952,12.92878363827891
1953,12.92878363827891
2,1, 1,21, 0,12, 0.00,60.00,WinterDesignDay
7,-6.300000000000007
652,16.02219149250126
1717,0.0
1720,0.07168445653333335
1721,0.012086843099457595
1722,0.059597613433875738
1723,30.032485090810437
1724,28.62473692692684
1730,40.86937513499415
1952,12.92878363827891
1953,12.92878363827891
2,1, 1,21, 0,13, 0.00,60.00,WinterDesignDay
7,-6.300000000000007
652,16.02128655571646
1717,0.0
1720,0.08064501360000001
1721,0.013629165055218887
1722,0.06701584854478113
1723,30.044316784846197
1724,28.45667289380263
1730,40.870045507975579
1952,12.92878363827891
1953,12.92878363827891
2,1, 1,21, 0,14, 0.00,60.00,WinterDesignDay
7,-6.300000000000007
652,16.021937386698668
1717,0.0
1720,0.08064501360000001
1721,0.01359104003476255
1722,0.06705397356523747
1723,30.0397769170413
1724,28.4572676926426
1730,40.870641910055159
1952,12.92878363827891
1953,12.92878363827891
2,1, 1,21, 0,15, 0.00,60.00,WinterDesignDay
7,-6.300000000000007
652,16.02298533338868
1717,0.0
1720,0.07168445653333335
1721,0.012083284600161183
1722,0.05960117193317215
1723,30.035304999430914
1724,28.628125350336285
1730,40.87117544716125
1952,12.92878363827891
1953,12.92878363827891
2,1, 1,21, 0,16, 0.00,60.00,WinterDesignDay
7,-6.300000000000007
652,16.023022653318649
1717,0.0
1720,0.07168445653333335
1721,0.012080116858983737
1722,0.0596043396743496
1723,30.040541984301837
1724,28.633806429085689
1730,40.87165383278444
1952,12.92878363827891
1953,12.92878363827891
2,1, 1,21, 0,17, 0.00,60.00,WinterDesignDay
7,-6.300000000000007
652,16.02215085413572
1717,0.0
1720,0.07168445653333335
1721,0.012086321605640783
1722,0.05959813492769255
1723,30.036031851258586
1724,28.628579409157795
1730,40.87208308582655
1952,12.92878363827891
1953,12.92878363827891
2,1, 1,21, 0,18, 0.00,60.00,WinterDesignDay
7,-6.300000000000007
652,16.021691027472888
1717,0.0
1720,0.07168445653333335
1721,0.012080658611716196
1722,0.059603797921617147
1723,30.03866232770033
1724,28.631906658484448
1730,40.87246847481149
1952,12.92878363827891
1953,12.92878363827891
2,1, 1,21, 0,19, 0.00,60.00,WinterDesignDay
7,-6.300000000000007
652,16.000237940764867
1717,0.0
1720,0.2329744837333332
1721,0.038551936305908408
1722,0.19442254742742494
1723,30.153393698943096
1724,25.697487463732139
1730,40.86101671793986
1952,12.92878363827891
1953,12.92878363827891
2,1, 1,21, 0,20, 0.00,60.00,WinterDesignDay
7,-6.300000000000007
652,16.013380470832599
1717,0.0
1720,0.15232947013333335
1721,0.02474247565502461
1722,0.1275869944783087
1723,30.052387517954704
1724,27.19260944519484
1730,40.85297522097049
1952,12.92878363827891
1953,12.92878363827891
2,1, 1,21, 0,21, 0.00,60.00,WinterDesignDay
7,-6.300000000000007
652,16.01318963163228
1717,0.0
1720,0.1612900272
1721,0.02624468555306136
1722,0.13504534164693864
1723,30.05878713983577
1724,27.02577150271062
1730,40.850752014106259
1952,12.92878363827891
1953,12.92878363827891
2,1, 1,21, 0,22, 0.00,60.00,WinterDesignDay
7,-6.300000000000007
652,16.012820823247055
1717,0.0
1720,0.1433689130666667
1721,0.023357015894772728
1722,0.12001189717189395
1723,30.059429394532605
1724,27.359595970791366
1730,40.84943837555101
1952,12.92878363827891
1953,12.92878363827891
2,1, 1,21, 0,23, 0.00,60.00,WinterDesignDay
7,-6.300000000000007
652,16.010536285360084
1717,0.0
1720,0.1612900272
1721,0.026338032830031018
1722,0.134951994369969
1723,30.08456547797822
1724,27.0393746029954
1730,40.84844992584317
1952,12.92878363827891
1953,12.92878363827891
2,1, 1,21, 0,24, 0.00,60.00,WinterDesignDay
7,-6.300000000000007
652,16.010203303875249
1717,0.0
1720,0.1612900272
1721,0.026316486781921338
1722,0.13497354041807867
1723,30.076089548252374
1724,27.033276474608888
1730,40.84761443154918
1952,12.92878363827891
1953,12.92878363827891
1,ATLANTA-HARTSFIELD.JACKSON.INTL.AP_GA_USA ANN CLG .4% CONDNS DB=>MWB,  33.63, -84.43,  -5.00, 308.00
2,1, 7,21, 0, 1, 0.00,60.00,SummerDesignDay
7,26.32025
652,20.398511189288123
1717,9177.344530089666
1720,0.5467642243600003
1721,0.311160183132456
1722,0.23560404122754398
1723,9.998990532681268
1724,14.003956115234513
1730,28.938372367230689
1952,6.8834496140372709
1953,10.935546075785596
2,1, 7,21, 0, 2, 0.00,60.00,SummerDesignDay
7,25.84683333333334
652,20.271829924024915
1717,8998.715738221528
1720,0.5467642243600003
1721,0.31434560405244169
1722,0.23241862030755848
1723,10.10527594770009
1724,14.032411180162644
1730,28.98552251141829
1952,7.119586882741276
1953,11.09385446540835
2,1, 7,21, 0, 3, 0.00,60.00,SummerDesignDay
7,25.515125
652,20.17158831404691
1717,8847.561241097274
1720,0.5467642243600003
1721,0.3158600258805299
1722,0.23090419847947023
1723,10.18907142146418
1724,14.050333906071926
1730,29.051342324596349
1952,7.284739011941208
1953,11.193134977639828
2,1, 7,21, 0, 4, 0.00,60.00,SummerDesignDay
7,25.230124999999995
652,20.086035174120945
1717,8711.80555107778
1720,0.5467642243600003
1721,0.3171236101482091
1722,0.22964061421179098
1723,10.260515559587
1724,14.062609195655597
1730,29.118282950118997
1952,7.425962837837838
1953,11.275190919247497
2,1, 7,21, 0, 5, 0.00,60.00,SummerDesignDay
7,24.993416666666673
652,20.011120156567789
1717,8589.411920995246
1720,0.5467642243600003
1721,0.31793921773703046
1722,0.2288250066229695
1723,10.323108865663994
1724,14.071853458410086
1730,29.184530755048834
1952,7.544027675604871
1953,11.339907558522758
2,1, 7,21, 0, 6, 0.00,60.00,SummerDesignDay
7,24.996583333333335
652,19.95617552624611
1717,8498.80933049946
1720,0.5467642243600003
1721,0.3143819623799971
1722,0.23238226198000296
1723,10.369501140728892
1724,14.078752658063765
1730,29.311001237627737
1952,7.545573915632699
1953,11.301961349327734
2,1, 7,21, 0, 7, 0.00,60.00,SummerDesignDay
7,25.42804166666666
652,20.339234503592345
1717,9091.514973721078
1720,0.5467642243600003
1721,0.32814269595998066
1722,0.21862152840001954
1723,10.057482985881466
1724,14.025060063548614
1730,30.12970307144357
1952,7.335703317964299
1953,11.35041209170947
2,1, 7,21, 0, 8, 0.00,60.00,SummerDesignDay
7,26.575958333333334
652,20.597314844608584
1717,9431.783963632452
1720,0.5467642243600003
1721,0.31995433009144016
1722,0.22680989426855989
1723,9.840043289927888
1724,13.95582861617211
1730,30.180980237696937
1952,6.840959799294428
1953,11.003873536784557
2,1, 7,21, 0, 9, 0.00,60.00,SummerDesignDay
7,28.287541666666664
652,20.97083191875794
1717,10020.567302034635
1720,0.5467642243600003
1721,0.33551700232569617
1722,0.21124722203430386
1723,9.5299721864832
1724,13.902233386624545
1730,30.180980237696937
1952,6.699999999999995
1953,11.119384730666133
2,1, 7,21, 0,10, 0.00,60.00,SummerDesignDay
7,29.995958333333328
652,21.42869875625805
1717,10764.689420825916
1720,0.5467642243600003
1721,0.3629288896386592
1722,0.1838353347213407
1723,9.150273639983363
1724,13.846619117595795
1730,30.180980237696937
1952,6.699999999999993
1953,11.443463032805499
2,1, 7,21, 0,11, 0.00,60.00,SummerDesignDay
7,31.514374999999995
652,22.07696284940296
1717,11854.501127356269
1720,0.5467642243600003
1721,0.40280846691721108
1722,0.143955757442789
1723,8.612553932791185
1724,13.783422957914969
1730,30.180980237696937
1952,6.699999999999993
1953,11.917978120837417
2,1, 7,21, 0,12, 0.00,60.00,SummerDesignDay
7,32.697916666666667
652,22.787556433432326
1717,13054.691874057324
1720,0.5467642243600003
1721,0.4479638599296729
1722,0.09880036443032726
1723,8.019564105934528
1724,13.712825029236893
1730,30.180980237696937
1952,6.701327052539757
1953,12.445939332239835
2,1, 7,21, 0,13, 0.00,60.00,SummerDesignDay
7,33.55133333333333
652,23.36710629160467
1717,13569.519576635123
1720,0.5467642243600003
1721,0.5338927787805885
1722,0.012871445579411773
1723,7.778568529804632
1724,13.695880714145224
1730,30.180980237696937
1952,7.542819209488171
1953,13.538478162583682
2,1, 7,21, 0,14, 0.00,60.00,SummerDesignDay
7,34.16645833333333
652,23.76515220617706
1717,13496.698738238969
1720,0.5467642243600003
1721,0.5467642243600003
1722,0.0
1723,7.948760416116161
1724,13.834652834537426
1730,30.180980237696937
1952,7.867687533864977
1953,13.834652834537426
2,1, 7,21, 0,15, 0.00,60.00,SummerDesignDay
7,34.40000000000004
652,23.901047047533745
1717,13492.862718812952
1720,0.5467642243600003
1721,0.5467642243600003
1722,0.0
1723,8.090535530431606
1724,13.975033554722833
1730,30.180980237696937
1952,8.009480170317755
1953,13.975033554722833
2,1, 7,21, 0,16, 0.00,60.00,SummerDesignDay
7,34.110250000000018
652,23.73166022692158
1717,13483.858814587555
1720,0.5467642243600003
1721,0.5467642243600003
1722,0.0
1723,8.144169392403857
1724,14.024845944191953
1730,30.180980237696937
1952,8.063146233563313
1953,14.024845944191953
2,1, 7,21, 0,17, 0.00,60.00,SummerDesignDay
7,33.44366666666667
652,23.337563633446579
1717,13474.880681637285
1720,0.5467642243600003
1721,0.5467642243600003
1722,0.0
1723,8.07326187354065
1724,13.949883722255687
1730,30.180980237696937
1952,7.992266205109371
1953,13.949883722255687
2,1, 7,21, 0,18, 0.00,60.00,SummerDesignDay
7,32.58708333333333
652,22.86031807550651
1717,13268.08926328096
1720,0.5467642243600003
1721,0.5108923812107001
1722,0.03587184314929996
1723,8.001752970049525
1724,13.788049408172505
1730,30.180980237696937
1952,7.4792707970776
1953,13.339741143052722
2,1, 7,21, 0,19, 0.00,60.00,SummerDesignDay
7,31.395624999999997
652,22.362199599916037
1717,12278.957217700343
1720,0.5467642243600003
1721,0.42117918326765849
1722,0.1255850410923415
1723,8.357938626765636
1724,13.713502121416152
1730,30.180980237696937
1952,6.700000003232973
1953,12.102668588896963
2,1, 7,21, 0,20, 0.00,60.00,SummerDesignDay
7,30.16379166666667
652,21.949275404696939
1717,11523.043996719209
1720,0.5467642243600003
1721,0.394580156203952
1722,0.15218406815604805
1723,8.70408445890301
1724,13.730534002266806
1730,30.180980237696937
1952,6.699999999999993
1953,11.77356007873637
2,1, 7,21, 0,21, 0.00,60.00,SummerDesignDay
7,29.215374999999999
652,21.608400949226259
1717,10963.672945821312
1720,0.5467642243600003
1721,0.37345162957630459
1722,0.1733125947836955
1723,8.988820159494445
1724,13.771722527260833
1730,30.180980237696937
1952,6.699999999999993
1953,11.530017382570544
2,1, 7,21, 0,22, 0.00,60.00,SummerDesignDay
7,28.360375
652,21.348676506649367
1717,10556.09262326131
1720,0.5467642243600003
1721,0.35770240003890349
1722,0.18906182432109656
1723,9.206314062904458
1724,13.811744613246356
1730,30.180980237696937
1952,6.699999999999993
1953,11.352548987282392
2,1, 7,21, 0,23, 0.00,60.00,SummerDesignDay
7,27.60195833333334
652,20.814025076106238
1717,9717.246530622768
1720,0.5467642243600003
1721,0.3261908877537856
1722,0.22057333660621443
1723,9.646909347946842
1724,13.886987677319784
1730,28.78326825470061
1952,6.699999999999993
1953,10.987203700467392
2,1, 7,21, 0,24, 0.00,60.00,SummerDesignDay
7,26.936958333333334
652,20.572373542185177
1717,9410.655415126155
1720,0.5467642243600003
1721,0.3129192335402807
1722,0.23384499081971947
1723,9.853999251249457
1724,13.960585065521747
1730,28.63181917889168
1952,6.7027041521533159
1953,10.856418597370088
1,RUNPERIOD 1,  33.63, -84.43,  -5.00, 308.00
2,1, 7, 1, 0, 1, 0.00,60.00,Sunday
7,21.118333333333337
652,18.453365976368255
1717,5965.098820201993
1720,0.5467642243600003
1721,0.2842006941204794
1722,0.2625635302395208
1723,12.0
1724,14.604645747258412
1730,11.994026164103266
1952,9.483682634680854
1953,12.135486316649617
2,1, 7, 1, 0, 2, 0.00,60.00,Sunday
7,22.098333333333334
652,18.420313578999218
1717,5877.934691200727
1720,0.5467642243600003
1721,0.2557528598880221
1722,0.291011364471978
1723,12.0
1724,14.566585744438715
1730,11.994026164103266
1952,8.978645698011276
1953,11.592389377160357
2,1, 7, 1, 0, 3, 0.00,60.00,Sunday
7,21.949166666666675
652,18.356031447820976
1717,5805.064990387188
1720,0.5467642243600003
1721,0.2575367035869245
1722,0.2892275207730756
1723,12.0
1724,14.53476736857457
1730,11.994026164103266
1952,9.053182680500783
1953,11.635107983785705
2,1, 7, 1, 0, 4, 0.00,60.00,Sunday
7,21.79833333333333
652,18.294266399156859
1717,5738.407265781566
1720,0.5467642243600003
1721,0.25951693984147158
1722,0.2872472845185285
1723,12.0
1724,14.505661436862607
1730,11.994026164103266
1952,9.12711011229201
1953,11.679929483864964
2,1, 7, 1, 0, 5, 0.00,60.00,Sunday
7,21.700000000000025
652,18.25865089797185
1717,5680.91443751312
1720,0.5467642243600003
1721,0.2606142021858472
1722,0.2861500221741527
1723,12.0
1724,14.480557334623745
1730,11.994026164103266
1952,9.17746145709765
1953,11.705176726431758
2,1, 7, 1, 0, 6, 0.00,60.00,Sunday
7,21.954166666666663
652,18.261028327875658
1717,5643.398575369024
1720,0.5467642243600003
1721,0.25392172644300067
1722,0.2928424979169993
1723,12.0
1724,14.46417612557195
1730,13.056919956540556
1952,9.055628117218623
1953,11.56696217750092
2,1, 7, 1, 0, 7, 0.00,60.00,Sunday
7,22.200000000000025
652,18.45124869434233
1717,5687.012914250917
1720,0.5467642243600003
1721,0.2491266123047307
1722,0.29763761205526925
1723,12.0
1724,14.48322021951109
1730,14.195032799787127
1952,8.929769780679275
1953,11.460147934900725
2,1, 7, 1, 0, 8, 0.00,60.00,Sunday
7,23.31833333333333
652,18.736370045408028
1717,5822.292037410212
1720,0.5467642243600003
1721,0.23084684756012625
1722,0.31591737679987377
1723,12.0
1724,14.542289516340903
1730,14.299368402273667
1952,8.393592544590764
1953,10.983039995642028
2,1, 7, 1, 0, 9, 0.00,60.00,Sunday
7,25.823333333333335
652,19.204511447697536
1717,6066.992874827019
1720,0.5467642243600003
1721,0.19776486596097146
1722,0.3489993583990287
1723,12.0
1724,14.649137535919343
1730,14.962901561936964
1952,7.177778821195635
1953,9.874074291825334
2,1, 7, 1, 0,10, 0.00,60.00,Sunday
7,27.759166666666667
652,19.85529474640811
1717,6448.823196174105
1720,0.5467642243600003
1721,0.1928647132589269
1722,0.35389951110107339
1723,12.0
1724,14.815862807813046
1730,14.451237365228164
1952,6.700000005584965
1953,9.563020748108377
2,1, 7, 1, 0,11, 0.00,60.00,Sunday
7,29.164166666666668
652,20.540178106955897
1717,6915.724637968249
1720,0.5467642243600003
1721,0.2015327242687621
1722,0.34523150009123795
1723,12.0
1724,15.019734175482487
1730,13.407781828427306
1952,6.699999999999993
1953,9.766892110192848
2,1, 7, 1, 0,12, 0.00,60.00,Sunday
7,30.0
652,21.39309608273954
1717,7506.330965880788
1720,0.5467642243600003
1721,0.21190127526279599
1722,0.3348629490972041
1723,12.0
1724,15.277620977808623
1730,13.504868597510493
1952,6.699999999999993
1953,10.024778912518979
2,1, 7, 1, 0,13, 0.00,60.00,Sunday
7,30.86416666666667
652,22.046224062629379
1717,8099.4327383589929
1720,0.5467642243600003
1721,0.22172791623725594
1722,0.3250363081227442
1723,12.0
1724,15.53659740987459
1730,13.298530315787192
1952,6.699999999999993
1953,10.28375534458494
2,1, 7, 1, 0,14, 0.00,60.00,Sunday
7,29.717500000000006
652,22.0605083544156
1717,8402.505096335939
1720,0.5467642243600003
1721,0.2265395717237851
1722,0.3202246526362148
1723,12.0
1724,15.668933210522648
1730,13.354973187708846
1952,6.699999999999993
1953,10.416091145233004
2,1, 7, 1, 0,15, 0.00,60.00,Sunday
7,28.613333333333335
652,21.9800519116797
1717,8496.698191581154
1720,0.5467642243600003
1721,0.22800167720814588
1722,0.31876254715185417
1723,12.0
1724,15.710062394186903
1730,13.38301162754562
1952,6.699999999999993
1953,10.457220328897261
2,1, 7, 1, 0,16, 0.00,60.00,Sunday
7,28.0275
652,21.749893756611085
1717,8469.157933911201
1720,0.5467642243600003
1721,0.22757479970661582
1722,0.3191894246533843
1723,12.0
1724,15.698037008324807
1730,13.548623011094332
1952,6.699999999999993
1953,10.445194943035169
2,1, 7, 1, 0,17, 0.00,60.00,Sunday
7,25.276666666666665
652,21.196189196063295
1717,8240.56885454162
1720,0.5467642243600003
1721,0.2431567224038104
1722,0.30360750195618965
1723,12.0
1724,15.598224148321009
1730,14.03654104511867
1952,7.3823564174495959
1953,11.027738500480958
2,1, 7, 1, 0,18, 0.00,60.00,Sunday
7,23.594999999999997
652,20.630812109814195
1717,7907.338974378301
1720,0.5467642243600003
1721,0.2650934987631175
1722,0.28167072559688258
1723,12.0
1724,15.452720139688767
1730,14.42715636972176
1952,8.233382334380553
1953,11.73326040877968
2,1, 7, 1, 0,19, 0.00,60.00,Sunday
7,23.604999999999995
652,20.149447892145117
1717,7563.549460862106
1720,0.5467642243600003
1721,0.25929942290443316
1722,0.2874648014555668
1723,12.0
1724,15.302605293091535
1730,13.82235481781242
1952,8.2384173912346
1953,11.588180619036488
2,1, 7, 1, 0,20, 0.00,60.00,Sunday
7,21.917500000000005
652,19.672946838275356
1717,7209.576673247986
1720,0.5467642243600003
1721,0.2883429634818702
1722,0.25842126087812997
1723,12.0
1724,15.148043944873475
1730,12.327097508053333
1952,9.03786045854592
1953,12.233062338129752
2,1, 7, 1, 0,21, 0.00,60.00,Sunday
7,20.304999999999994
652,19.191448854666786
1717,6833.149545369324
1720,0.5467642243600003
1721,0.3243306449604046
1722,0.2224335793995956
1723,12.0
1724,14.983677964135435
1730,12.518036439221606
1952,9.873288190102727
1953,12.904124088948523
2,1, 7, 1, 0,22, 0.00,60.00,Sunday
7,20.294999999999996
652,18.89094576481058
1717,6524.827923897028
1720,0.5467642243600003
1721,0.3180576087565239
1722,0.22870661560347622
1723,12.0
1724,14.849050085476343
1730,11.992230077321022
1952,9.868789815972605
1953,12.764997836159307
2,1, 7, 1, 0,23, 0.00,60.00,Sunday
7,20.0
652,18.67319585637591
1717,6280.877991053534
1720,0.5467642243600003
1721,0.3229613111017807
1722,0.22380291325821936
1723,12.0
1724,14.742529946535332
1730,12.215560710057725
1952,10.01977175868037
1953,12.809459639926047
2,1, 7, 1, 0,24, 0.00,60.00,Sunday
7,20.0
652,18.53554951871281
1717,6098.239057271273
1720,0.5467642243600003
1721,0.3191235357124824
1722,0.22764068864751778
1723,12.0
1724,14.662781104730957
1730,11.99941134961701
1952,10.019819819819825
1953,12.729758859261129
2,2, 7, 2, 0, 1, 0.00,60.00,Monday
7,20.0
652,18.45351069355422
1717,6584.777239225109
1720,0.5467642243600003
1721,0.35688372753453759
1722,0.18988049682546244
1723,11.621057165121107
1724,14.495971440555144
1730,11.99941134961701
1952,10.019819819819825
1953,12.941886910879955
2,2, 7, 2, 0, 2, 0.00,60.00,Monday
7,20.0
652,18.352956473496144
1717,6163.737644149957
1720,0.5467642243600003
1721,0.3421391753013526
1722,0.20462504905864738
1723,11.704508062223339
1724,14.395660866576997
1730,11.99941134961701
1952,10.019819819819825
1953,12.75812656701225
2,2, 7, 2, 0, 3, 0.00,60.00,Monday
7,19.440833333333335
652,18.254224730647779
1717,5894.370086515944
1720,0.5467642243600003
1721,0.35226183852128287
1722,0.1945023858387174
1723,11.786650198778008
1724,14.360254878374962
1730,11.99941134961701
1952,10.287888412389302
1953,12.908648144424376
2,2, 7, 2, 0, 4, 0.00,60.00,Monday
7,19.154166666666666
652,18.151975559947478
1717,5679.279672219926
1720,0.5467642243600003
1721,0.35362345956224858
1722,0.19314076479775156
1723,11.872106379052675
1724,14.35185890702318
1730,11.99941134961701
1952,10.442927392517003
1953,12.969836127356562
2,2, 7, 2, 0, 5, 0.00,60.00,Monday
7,19.399999999999996
652,18.07861967902715
1717,5539.964367809976
1720,0.5467642243600003
1721,0.3341275289093434
1722,0.21263669545065679
1723,11.93374299434899
1724,14.352708866824468
1730,11.99941134961701
1952,10.317157168066668
1953,12.78328008010848
2,2, 7, 2, 0, 6, 0.00,60.00,Monday
7,19.399999999999996
652,18.05100013350385
1717,5491.472059780444
1720,0.5467642243600003
1721,0.3310521444852377
1722,0.21571207987476247
1723,11.95740390312211
1724,14.355212424040938
1730,11.99941134961701
1952,10.31711711711712
1953,12.76208299726486
2,2, 7, 2, 0, 7, 0.00,60.00,Monday
7,19.705
652,18.287219674877247
1717,5865.0144415037589
1720,0.5467642243600003
1721,0.3430766565018638
1722,0.20368756785813622
1723,11.766018974415014
1724,14.32679013315031
1730,13.224864627325891
1952,10.17089788480649
1953,12.778823817326579
2,2, 7, 2, 0, 8, 0.00,60.00,Monday
7,21.118333333333337
652,19.38912941284399
1717,7561.316105686201
1720,0.5467642243600003
1721,0.39082184723212695
1722,0.1559423771278732
1723,10.862920769492814
1724,14.163455597226669
1730,11.411574010396447
1952,9.483730695820308
1953,12.83140810129779
2,2, 7, 2, 0, 9, 0.00,60.00,Monday
7,23.62333333333333
652,19.99029049649509
1717,8366.666114245427
1720,0.5467642243600003
1721,0.3525912932296524
1722,0.19417293113034765
1723,10.34664683726286
1724,13.998197634744816
1730,11.358476597210297
1952,8.247549536458142
1953,11.94623594188821
2,2, 7, 2, 0,10, 0.00,60.00,Monday
7,25.55916666666667
652,20.562848570749073
1717,9226.495272703894
1720,0.5467642243600003
1721,0.3362199577257657
1722,0.21054426663423463
1723,9.871803390620496
1724,13.898044481985645
1730,11.358476597210297
1952,7.2744980350903198
1953,11.347868016791298
2,2, 7, 2, 0,11, 0.00,60.00,Monday
7,26.65916666666666
652,21.1437089818624
1717,10131.275189131022
1720,0.5467642243600003
1721,0.3476338425467167
1722,0.1991303818132833
1723,9.388791116762326
1724,13.809145482959913
1730,11.358476597210297
1952,6.783661685662575
1953,11.251137360491678
2,2, 7, 2, 0,12, 0.00,60.00,Monday
7,28.06416666666667
652,21.788219514704534
1717,11171.389599054655
1720,0.5467642243600003
1721,0.3829713680550935
1722,0.16379285630490662
1723,8.852288907445363
1724,13.7255795818146
1730,11.358476597210297
1952,6.699999999999993
1953,11.62040354127618
2,2, 7, 2, 0,13, 0.00,60.00,Monday
7,29.459166666666666
652,23.848088875382495
1717,13479.064875333566
1720,0.5467642243600003
1721,0.5325621747099204
1722,0.014202049650079842
1723,7.6599751956084429
1724,13.537600475293689
1730,11.358476597210297
1952,7.404451867699289
1953,13.358345681693326
2,2, 7, 2, 0,14, 0.00,60.00,Monday
7,29.440833333333328
652,22.990070434819054
1717,12911.715538361263
1720,0.5467642243600003
1721,0.47212721236943319
1722,0.07463701199056674
1723,7.874100841884681
1724,13.504738666690697
1730,11.358476597210297
1952,6.893192216152394
1953,12.58103483246755
2,2, 7, 2, 0,15, 0.00,60.00,Monday
7,29.76416666666667
652,22.836061583867946
1717,12689.009229463907
1720,0.5467642243600003
1721,0.4484869131589128
1722,0.09827731120108725
1723,7.9700288156163829
1724,13.503728186677636
1730,11.358476597210297
1952,6.699999999999993
1953,12.280798362234958
2,2, 7, 2, 0,16, 0.00,60.00,Monday
7,30.854166666666669
652,22.807804909827408
1717,12604.22774750144
1720,0.5467642243600003
1721,0.44650679059295308
1722,0.10025743376704685
1723,7.991885594353061
1724,13.488651345933825
1730,11.358476597210297
1952,6.699999999999993
1953,12.243865086384226
2,2, 7, 2, 0,17, 0.00,60.00,Monday
7,30.84583333333334
652,22.629826357022968
1717,12267.485295862223
1720,0.5467642243600003
1721,0.4346883246245384
1722,0.11207589973546156
1723,8.138718062894626
1724,13.488890515742634
1730,11.358476597210297
1952,6.699999999999993
1953,12.097274096398474
2,2, 7, 2, 0,18, 0.00,60.00,Monday
7,30.59999999999997
652,23.957401476596986
1717,13488.48365781887
1720,0.5467642243600003
1721,0.538186546368225
1722,0.008577677991775253
1723,7.481796450447463
1724,13.36318290868614
1730,11.358476597210297
1952,7.298372281993159
1953,13.25728232041558
2,2, 7, 2, 0,19, 0.00,60.00,Monday
7,29.430833333333337
652,21.565975398217227
1717,10217.555371713417
1720,0.5467642243600003
1721,0.36964973726472918
1722,0.17711448709527104
1723,8.996436938564182
1724,13.453774391731262
1730,30.326058672925844
1952,6.752988137348363
1953,11.260582191614168
2,2, 7, 2, 0,20, 0.00,60.00,Monday
7,26.927500000000003
652,20.105709732237277
1717,8087.864296765191
1720,0.5467642243600003
1721,0.28137991254701907
1722,0.26538431181298086
1723,10.22819171743507
1724,13.757925883540168
1730,32.082273031325147
1952,6.806747806659074
1953,10.383615894210612
2,2, 7, 2, 0,21, 0.00,60.00,Monday
7,24.430833333333334
652,19.41136599041603
1717,7261.483248047199
1720,0.5467642243600003
1721,0.2848398111674403
1722,0.26192441319255968
1723,10.816447601744218
1724,13.98607888554035
1730,31.97654914359288
1952,7.8053358271082369
1953,11.022109060862073
2,2, 7, 2, 0,22, 0.00,60.00,Monday
7,23.045833333333339
652,19.018044959746267
1717,6820.80720174874
1720,0.5467642243600003
1721,0.29429620802612546
1722,0.25246801633387469
1723,11.148272619296995
1724,14.125834341609244
1730,21.281960928010734
1952,8.506349810575627
1953,11.531057963239752
2,2, 7, 2, 0,23, 0.00,60.00,Monday
7,22.494999999999999
652,18.822013580109929
1717,6622.359951118819
1720,0.5467642243600003
1721,0.29615408920997929
1722,0.2506101351500209
1723,11.312360336217275
1724,14.203427641424883
1730,12.496231324432357
1952,8.778611613793512
1953,11.7168275652701
2,2, 7, 2, 0,24, 0.00,60.00,Monday
7,21.640833333333334
652,18.637019961950707
1717,6371.4385379957479
1720,0.5467642243600003
1721,0.3063981130269869
1722,0.24036611133301334
1723,11.466533993772162
1724,14.248181403000928
1730,11.990048748733973
1952,9.197750261159757
1953,12.026548398898728
End of Data
 Number of Records Written=        1056
