Program Version,EnergyPlus, Version 9.5.0-de239b2e5f, YMD=2021.07.22 03:26
1,5,Environment Title[],Latitude[deg],Longitude[deg],Time Zone[],Elevation[m]
2,8,Day of Simulation[],Month[],Day of Month[],DST Indicator[1=yes 0=no],Hour[],StartMinute[],EndMinute[],DayType
3,5,Cumulative Day of Simulation[],Month[],Day of Month[],DST Indicator[1=yes 0=no],DayType  ! When Daily Report Variables Requested
4,2,Cumulative Days of Simulation[],Month[]  ! When Monthly Report Variables Requested
5,1,Cumulative Days of Simulation[] ! When Run Period Report Variables Requested
6,1,Calendar Year of Simulation[] ! When Annual Report Variables Requested
7,1,Environment,Site Outdoor Air Drybulb Temperature [C] !Hourly
652,1,PERIMETER_BOT_ZN_1,Zone Mean Air Temperature [C] !Hourly
1717,1,PERI1_TOP_LOTEMP,Zone Radiant HVAC Cooling Rate [W] !Hourly
1720,1,PERI1_TOP_LOTEMP,Zone Radiant HVAC Mass Flow Rate [kg/s] !Hourly
1721,1,PERI1_TOP_LOTEMP,Zone Radiant HVAC Injection Mass Flow Rate [kg/s] !Hourly
1722,1,PERI1_TOP_LOTEMP,Zone Radiant HVAC Recirculation Mass Flow Rate [kg/s] !Hourly
1723,1,PERI1_TOP_LOTEMP,Zone Radiant HVAC Inlet Temperature [C] !Hourly
1724,1,PERI1_TOP_LOTEMP,Zone Radiant HVAC Outlet Temperature [C] !Hourly
1730,1,PERI2_TOP_LOTEMP,Zone Radiant HVAC Outlet Temperature [C] !Hourly
1952,1,PERI1_TOP_LOTEMP_CHW_INLET,System Node Temperature [C] !Hourly
1953,1,PERI1_TOP_LOTEMP_CHW_OUTLET,System Node Temperature [C] !Hourly
End of Data Dictionary
1,ATLANTA-HARTSFIELD.JACKSON.INTL.AP_GA_USA ANN HTG 99.6% CONDNS DB,  33.63, -84.43,  -5.00, 308.00
2,1, 1,21, 0, 1, 0.00,60.00,WinterDesignDay
7,-6.300000000000007
652,16.010609115123445
1717,0.0
1720,0.15232947013333335
1721,0.02488194441315656
1722,0.12744752572017679
1723,30.079382597406047
1724,27.201924699105157
1730,40.8478521185969
1952,12.92878363827891
1953,12.92878363827891
2,1, 1,21, 0, 2, 0.00,60.00,WinterDesignDay
7,-6.300000000000007
652,16.01273822320849
1717,0.0
1720,0.1433689130666667
1721,0.023379979485560276
1722,0.1199889335811064
1723,30.069259792964968
1724,27.36613550872097
1730,40.847169716203179
1952,12.92878363827891
1953,12.92878363827891
2,1, 1,21, 0, 3, 0.00,60.00,WinterDesignDay
7,-6.300000000000007
652,16.009754289396605
1717,0.0
1720,0.1612900272
1721,0.026354789493765786
1722,0.13493523770623426
1723,30.0841053941916
1724,27.036498633292003
1730,40.84655177627316
1952,12.92878363827891
1953,12.92878363827891
2,1, 1,21, 0, 4, 0.00,60.00,WinterDesignDay
7,-6.300000000000007
652,16.012345712258907
1717,0.0
1720,0.1433689130666667
1721,0.023405166418221724
1722,0.11996374664844496
1723,30.060048497096419
1724,27.35309865009221
1730,40.84599047015952
1952,12.92878363827891
1953,12.92878363827891
2,1, 1,21, 0, 5, 0.00,60.00,WinterDesignDay
7,-6.300000000000007
652,16.010653707673993
1717,0.0
1720,0.15232947013333335
1721,0.024911031019644395
1722,0.12741843911368895
1723,30.089785192705006
1724,27.209362874453445
1730,40.84547994137283
1952,12.92878363827891
1953,12.92878363827891
2,1, 1,21, 0, 6, 0.00,60.00,WinterDesignDay
7,-6.300000000000007
652,16.010425968216894
1717,0.0
1720,0.1612900272
1721,0.026346745363186716
1722,0.13494328183681329
1723,30.07455333460962
1724,27.02775983294358
1730,40.84501466202039
1952,12.92878363827891
1953,12.92878363827891
2,1, 1,21, 0, 7, 0.00,60.00,WinterDesignDay
7,-6.300000000000007
652,16.073699118345567
1717,0.0
1720,0.026881671200000003
1721,0.004545817273392907
1722,0.022335853926607097
1723,30.083041682519825
1724,29.553151373821028
1730,40.85634532840337
1952,12.92878363827891
1953,12.92878363827891
2,1, 1,21, 0, 8, 0.00,60.00,WinterDesignDay
7,-6.300000000000007
652,16.028001835787124
1717,0.0
1720,0.053763342400000007
1721,0.00907130454787875
1722,0.04469203785212125
1723,30.01710263065029
1724,28.960210681353474
1730,40.86430005759646
1952,12.92878363827891
1953,12.92878363827891
2,1, 1,21, 0, 9, 0.00,60.00,WinterDesignDay
7,-6.300000000000007
652,16.02311659245585
1717,0.0
1720,0.07168445653333335
1721,0.012115558706423028
1722,0.05956889782691031
1723,30.041617859308077
1724,28.630172480891735
1730,40.86644867532896
1952,12.92878363827891
1953,12.92878363827891
2,1, 1,21, 0,10, 0.00,60.00,WinterDesignDay
7,-6.300000000000007
652,16.022960354199978
1717,0.0
1720,0.07168445653333335
1721,0.012104302486088608
1722,0.05958015404724473
1723,30.03801987972736
1724,28.628024646772464
1730,40.8676910695514
1952,12.92878363827891
1953,12.92878363827891
2,1, 1,21, 0,11, 0.00,60.00,WinterDesignDay
7,-6.300000000000007
652,16.0212300000227
1717,0.0
1720,0.07168445653333335
1721,0.012121674549151689
1722,0.059562781984181658
1723,30.054968290325996
1724,28.643013536804486
1730,40.868609028008517
1952,12.92878363827891
1953,12.92878363827891
2,1, 1,21, 0,12, 0.00,60.00,WinterDesignDay
7,-6.300000000000007
652,16.02219149250126
1717,0.0
1720,0.07168445653333335
1721,0.012086843099457595
1722,0.059597613433875738
1723,30.032485090810437
1724,28.62473692692684
1730,40.86937513499415
1952,12.92878363827891
1953,12.92878363827891
2,1, 1,21, 0,13, 0.00,60.00,WinterDesignDay
7,-6.300000000000007
652,16.02128655571646
1717,0.0
1720,0.08064501360000001
1721,0.013629165055218887
1722,0.06701584854478113
1723,30.044316784846197
1724,28.45667289380263
1730,40.870045507975579
1952,12.92878363827891
1953,12.92878363827891
2,1, 1,21, 0,14, 0.00,60.00,WinterDesignDay
7,-6.300000000000007
652,16.021937386698668
1717,0.0
1720,0.08064501360000001
1721,0.01359104003476255
1722,0.06705397356523747
1723,30.0397769170413
1724,28.4572676926426
1730,40.870641910055159
1952,12.92878363827891
1953,12.92878363827891
2,1, 1,21, 0,15, 0.00,60.00,WinterDesignDay
7,-6.300000000000007
652,16.02298533338868
1717,0.0
1720,0.07168445653333335
1721,0.012083284600161183
1722,0.05960117193317215
1723,30.035304999430914
1724,28.628125350336285
1730,40.87117544716125
1952,12.92878363827891
1953,12.92878363827891
2,1, 1,21, 0,16, 0.00,60.00,WinterDesignDay
7,-6.300000000000007
652,16.023022653318649
1717,0.0
1720,0.07168445653333335
1721,0.012080116858983737
1722,0.0596043396743496
1723,30.040541984301837
1724,28.633806429085689
1730,40.87165383278444
1952,12.92878363827891
1953,12.92878363827891
2,1, 1,21, 0,17, 0.00,60.00,WinterDesignDay
7,-6.300000000000007
652,16.02215085413572
1717,0.0
1720,0.07168445653333335
1721,0.012086321605640783
1722,0.05959813492769255
1723,30.036031851258586
1724,28.628579409157795
1730,40.87208308582655
1952,12.92878363827891
1953,12.92878363827891
2,1, 1,21, 0,18, 0.00,60.00,WinterDesignDay
7,-6.300000000000007
652,16.021691027472888
1717,0.0
1720,0.07168445653333335
1721,0.012080658611716196
1722,0.059603797921617147
1723,30.03866232770033
1724,28.631906658484448
1730,40.87246847481149
1952,12.92878363827891
1953,12.92878363827891
2,1, 1,21, 0,19, 0.00,60.00,WinterDesignDay
7,-6.300000000000007
652,16.000237940764867
1717,0.0
1720,0.2329744837333332
1721,0.038551936305908408
1722,0.19442254742742494
1723,30.153393698943096
1724,25.697487463732139
1730,40.86101671793986
1952,12.92878363827891
1953,12.92878363827891
2,1, 1,21, 0,20, 0.00,60.00,WinterDesignDay
7,-6.300000000000007
652,16.013380470832599
1717,0.0
1720,0.15232947013333335
1721,0.02474247565502461
1722,0.1275869944783087
1723,30.052387517954704
1724,27.19260944519484
1730,40.85297522097049
1952,12.92878363827891
1953,12.92878363827891
2,1, 1,21, 0,21, 0.00,60.00,WinterDesignDay
7,-6.300000000000007
652,16.01318963163228
1717,0.0
1720,0.1612900272
1721,0.02624468555306136
1722,0.13504534164693864
1723,30.05878713983577
1724,27.02577150271062
1730,40.850752014106259
1952,12.92878363827891
1953,12.92878363827891
2,1, 1,21, 0,22, 0.00,60.00,WinterDesignDay
7,-6.300000000000007
652,16.012820823247055
1717,0.0
1720,0.1433689130666667
1721,0.023357015894772728
1722,0.12001189717189395
1723,30.059429394532605
1724,27.359595970791366
1730,40.84943837555101
1952,12.92878363827891
1953,12.92878363827891
2,1, 1,21, 0,23, 0.00,60.00,WinterDesignDay
7,-6.300000000000007
652,16.010536285360084
1717,0.0
1720,0.1612900272
1721,0.026338032830031018
1722,0.134951994369969
1723,30.08456547797822
1724,27.0393746029954
1730,40.84844992584317
1952,12.92878363827891
1953,12.92878363827891
2,1, 1,21, 0,24, 0.00,60.00,WinterDesignDay
7,-6.300000000000007
652,16.010203303875249
1717,0.0
1720,0.1612900272
1721,0.026316486781921338
1722,0.13497354041807867
1723,30.076089548252374
1724,27.033276474608888
1730,40.84761443154918
1952,12.92878363827891
1953,12.92878363827891
1,ATLANTA-HARTSFIELD.JACKSON.INTL.AP_GA_USA ANN CLG .4% CONDNS DB=>MWB,  33.63, -84.43,  -5.00, 308.00
2,1, 7,21, 0, 1, 0.00,60.00,SummerDesignDay
7,26.32025
652,20.398511189031443
1717,9177.344529645494
1720,0.5467642243600003
1721,0.311160183116565
1722,0.23560404124343496
1723,9.998990532898505
1724,14.003956115257978
1730,28.93837234280017
1952,6.8834496140372709
1953,10.935546075591822
2,1, 7,21, 0, 2, 0.00,60.00,SummerDesignDay
7,25.84683333333334
652,20.271829924236429
1717,8998.715738660421
1720,0.5467642243600003
1721,0.31434560406670017
1722,0.23241862029330005
1723,10.10527594752843
1724,14.032411180181804
1730,28.985522499731635
1952,7.119586882741276
1953,11.09385446559917
2,1, 7,21, 0, 3, 0.00,60.00,SummerDesignDay
7,25.515125
652,20.171588314418658
1717,8847.561241842634
1720,0.5467642243600003
1721,0.31586002590595715
1722,0.23090419845404287
1723,10.189071421156778
1724,14.050333906088519
1730,29.051342325656586
1952,7.284739011941207
1953,11.193134977963809
2,1, 7,21, 0, 4, 0.00,60.00,SummerDesignDay
7,25.230124999999995
652,20.086035174690545
1717,8711.805552215441
1720,0.5467642243600003
1721,0.3171236101879266
1722,0.2296406141720734
1723,10.260515559115332
1724,14.062609195679722
1730,29.118282947858757
1952,7.4259628378378379
1953,11.275190919743278
2,1, 7,21, 0, 5, 0.00,60.00,SummerDesignDay
7,24.993416666666673
652,20.011120157323246
1717,8589.411922487114
1720,0.5467642243600003
1721,0.3179392177904087
1722,0.22882500656959144
1723,10.323108865035943
1724,14.071853458431937
1730,29.184530756094504
1952,7.544027675604871
1953,11.339907559172643
2,1, 7,21, 0, 6, 0.00,60.00,SummerDesignDay
7,24.996583333333335
652,19.956175527241478
1717,8498.809332413477
1720,0.5467642243600003
1721,0.31438196244931346
1722,0.23238226191068654
1723,10.36950113990224
1724,14.078752658069324
1730,29.311001278501764
1952,7.545573915632698
1953,11.301961350159897
2,1, 7,21, 0, 7, 0.00,60.00,SummerDesignDay
7,25.42804166666666
652,20.3392345035401
1717,9091.514973635465
1720,0.5467642243600003
1721,0.32814269595779779
1722,0.21862152840220218
1723,10.057482985905843
1724,14.025060063535032
1730,30.12970376552117
1952,7.335703317964299
1953,11.3504120916715
2,1, 7,21, 0, 8, 0.00,60.00,SummerDesignDay
7,26.575958333333334
652,20.59731484501474
1717,9431.783964462196
1720,0.5467642243600003
1721,0.31995433011672178
1722,0.22680989424327825
1723,9.840043289607357
1724,13.95582861621337
1730,30.18098096705336
1952,6.840959799294429
1953,11.00387353714636
2,1, 7,21, 0, 9, 0.00,60.00,SummerDesignDay
7,28.287541666666664
652,20.97083191961548
1717,10020.567303653157
1720,0.5467642243600003
1721,0.3355170023800084
1722,0.2112472219799915
1723,9.529972185761296
1724,13.902233386608153
1730,30.18098096705336
1952,6.699999999999995
1953,11.119384731371648
2,1, 7,21, 0,10, 0.00,60.00,SummerDesignDay
7,29.995958333333328
652,21.428698757100539
1717,10764.68942236913
1720,0.5467642243600003
1721,0.3629288896905735
1722,0.18383533466942676
1723,9.150273639302638
1724,13.846619117587615
1730,30.18098096705336
1952,6.699999999999993
1953,11.443463033478038
2,1, 7,21, 0,11, 0.00,60.00,SummerDesignDay
7,31.514374999999995
652,22.07696285055716
1717,11854.501129478036
1720,0.5467642243600003
1721,0.4028084669919128
1722,0.14395575736808725
1723,8.612553931806327
1724,13.783422957854246
1730,30.18098096705336
1952,6.699999999999993
1953,11.917978121761536
2,1, 7,21, 0,12, 0.00,60.00,SummerDesignDay
7,32.697916666666667
652,22.787556433755396
1717,13054.69187458431
1720,0.5467642243600003
1721,0.44796385995312529
1722,0.09880036440687472
1723,8.019564105668039
1724,13.712825029199268
1730,30.18098096705336
1952,6.7013270525671
1953,12.445939332516025
2,1, 7,21, 0,13, 0.00,60.00,SummerDesignDay
7,33.55133333333333
652,23.367106292212907
1717,13569.51957665923
1720,0.5467642243600003
1721,0.5338927788268897
1722,0.012871445533110555
1723,7.7785685299270279
1724,13.695880714276968
1730,30.18098096705336
1952,7.542819210213607
1953,13.53847816330153
2,1, 7,21, 0,14, 0.00,60.00,SummerDesignDay
7,34.16645833333333
652,23.765152207066085
1717,13496.698738259149
1720,0.5467642243600003
1721,0.5467642243600003
1722,0.0
1723,7.948760416522517
1724,13.834652834951946
1730,30.18098096705336
1952,7.867687534271449
1953,13.834652834951946
2,1, 7,21, 0,15, 0.00,60.00,SummerDesignDay
7,34.40000000000004
652,23.90104704863129
1717,13492.86271882578
1720,0.5467642243600003
1721,0.5467642243600003
1722,0.0
1723,8.090535531100173
1724,13.975033555396191
1730,30.18098096705336
1952,8.009480170983732
1953,13.975033555396191
2,1, 7,21, 0,16, 0.00,60.00,SummerDesignDay
7,34.110250000000018
652,23.731660228102127
1717,13483.858814601344
1720,0.5467642243600003
1721,0.5467642243600003
1722,0.0
1723,8.144169393281996
1724,14.024845945075564
1730,30.18098096705336
1952,8.063146234441609
1953,14.02484594507556
2,1, 7,21, 0,17, 0.00,60.00,SummerDesignDay
7,33.44366666666667
652,23.337563634612569
1717,13474.88068164651
1720,0.5467642243600003
1721,0.5467642243600003
1722,0.0
1723,8.073261874552525
1724,13.949883723270754
1730,30.18098096705336
1952,7.992266206121363
1953,13.949883723270754
2,1, 7,21, 0,18, 0.00,60.00,SummerDesignDay
7,32.58708333333333
652,22.86031807654128
1717,13268.089265169509
1720,0.5467642243600003
1721,0.5108923815251939
1722,0.03587184283480629
1723,8.00175297006491
1724,13.788049409010517
1730,30.18098096705336
1952,7.479270801050292
1953,13.3397411479331
2,1, 7,21, 0,19, 0.00,60.00,SummerDesignDay
7,31.395624999999997
652,22.362199600484876
1717,12278.957219508227
1720,0.5467642243600003
1721,0.42117918331051237
1722,0.12558504104948763
1723,8.357938626284886
1724,13.713502121723268
1730,30.18098096705336
1952,6.700000003232973
1953,12.102668589684824
2,1, 7,21, 0,20, 0.00,60.00,SummerDesignDay
7,30.16379166666667
652,21.94927540480277
1717,11523.043997186762
1720,0.5467642243600003
1721,0.394580156213632
1722,0.15218406814636824
1723,8.704084458808888
1724,13.730534002376596
1730,30.18098096705336
1952,6.699999999999993
1953,11.773560078940282
2,1, 7,21, 0,21, 0.00,60.00,SummerDesignDay
7,29.215374999999999
652,21.608400948952196
1717,10963.672945386928
1720,0.5467642243600003
1721,0.3734516295598961
1722,0.17331259480010392
1723,8.988820159717337
1724,13.771722527294367
1730,30.18098096705336
1952,6.699999999999993
1953,11.530017382381196
2,1, 7,21, 0,22, 0.00,60.00,SummerDesignDay
7,28.360375
652,21.348676506063069
1717,10556.092622177004
1720,0.5467642243600003
1721,0.3577024000018571
1722,0.18906182435814318
1723,9.206314063391167
1724,13.811744613260276
1730,30.18098096705336
1952,6.699999999999993
1953,11.352548986809597
2,1, 7,21, 0,23, 0.00,60.00,SummerDesignDay
7,27.60195833333334
652,20.81402507549817
1717,9717.246529472446
1720,0.5467642243600003
1721,0.3261908877154152
1722,0.22057333664458476
1723,9.646909348453033
1724,13.886987677324461
1730,28.78326832403966
1952,6.699999999999993
1953,10.987203699965879
2,1, 7,21, 0,24, 0.00,60.00,SummerDesignDay
7,26.936958333333334
652,20.57237354148953
1717,9410.655413790768
1720,0.5467642243600003
1721,0.31291923349656977
1722,0.2338449908634303
1723,9.853999251828404
1724,13.96058506551868
1730,28.6318191819356
1952,6.7027041521533159
1953,10.856418596788084
1,RUNPERIOD 1,  33.63, -84.43,  -5.00, 308.00
2,1, 7, 1, 0, 1, 0.00,60.00,Sunday
7,21.118333333333337
652,19.325034659359809
1717,13444.219519731194
1720,0.5467642243600003
1721,0.5467642243600003
1722,0.0
1723,9.782183654365533
1724,15.648759926505589
1730,11.993280364279676
1952,9.704458807977849
1953,15.648759926505589
2,1, 7, 1, 0, 2, 0.00,60.00,Sunday
7,22.098333333333334
652,19.105479746556076
1717,2524.3046666074444
1720,0.5467642243600003
1721,0.09207324688501098
1722,0.4546909774749891
1723,14.669558469999995
1724,15.77263354142981
1730,11.993280364279676
1952,8.978646718533322
1953,10.128915818992338
2,1, 7, 1, 0, 3, 0.00,60.00,Sunday
7,21.949166666666675
652,19.211070085300468
1717,3693.78521155589
1720,0.5467642243600003
1721,0.1280234494240593
1722,0.41874077493594077
1723,14.532840139999989
1724,16.146893598112503
1730,11.993280364279676
1952,9.053182680500783
1953,10.71442831777162
2,1, 7, 1, 0, 4, 0.00,60.00,Sunday
7,21.79833333333333
652,19.236435284034717
1717,4060.691490421933
1720,0.5467642243600003
1721,0.13942992408610917
1722,0.40733430027389086
1723,14.495927769999988
1724,16.270287513857519
1730,11.993280364279676
1952,9.12711011229201
1953,10.948661535888958
2,1, 7, 1, 0, 5, 0.00,60.00,Sunday
7,21.700000000000025
652,18.863519736986903
1717,12782.831495088543
1720,0.5467642243600003
1721,0.5467642243600003
1722,0.0
1723,9.334554522768903
1724,14.911721056148292
1730,11.993280364279676
1952,9.276531323497102
1953,14.911721056148292
2,1, 7, 1, 0, 6, 0.00,60.00,Sunday
7,21.954166666666663
652,18.284265163557646
1717,10507.18122079915
1720,0.5467642243600003
1721,0.5467642243600003
1722,0.0
1723,9.102468459957015
1724,13.686405985232616
1730,13.055967733508736
1952,9.055628117218623
1953,13.686405985232616
2,1, 7, 1, 0, 7, 0.00,60.00,Sunday
7,22.200000000000025
652,18.504529087261845
1717,850.4337877769799
1720,0.4191859053426669
1721,0.03773242800468259
1722,0.3814534773379842
1723,14.24500223999999
1724,14.616581054388697
1730,14.193112453928757
1952,8.93033049397293
1953,9.338086993530757
2,1, 7, 1, 0, 8, 0.00,60.00,Sunday
7,23.31833333333333
652,19.264783194137356
1717,0.0
1720,0.0
1721,0.0
1722,0.0
1723,14.24500223999999
1724,14.24500223999999
1730,14.299427020694797
1952,8.92972972972973
1953,8.92972972972973
2,1, 7, 1, 0, 9, 0.00,60.00,Sunday
7,25.823333333333335
652,20.020912057360407
1717,4592.593601120955
1720,0.5467642243600003
1721,0.12233478639067676
1722,0.4244294379693233
1723,14.385565779999986
1724,16.392281972510508
1730,14.963081417717542
1952,7.195770765185799
1953,9.249677144247589
2,1, 7, 1, 0,10, 0.00,60.00,Sunday
7,27.759166666666667
652,20.689910803484979
1717,5816.153943489286
1720,0.5467642243600003
1721,0.145441252167548
1722,0.40132297219245219
1723,13.88875951
1724,16.4297438056797
1730,14.451411431016162
1952,6.700000005584965
1953,9.288167767624023
2,1, 7, 1, 0,11, 0.00,60.00,Sunday
7,29.164166666666668
652,21.24854763126154
1717,8795.038521776216
1720,0.5467642243600003
1721,0.2254576000584696
1722,0.32130662430153048
1723,12.286297780000009
1724,16.126944766908165
1730,13.407933279952572
1952,6.699999999999993
1953,10.587808789958718
2,1, 7, 1, 0,12, 0.00,60.00,Sunday
7,30.0
652,22.030955332833267
1717,6334.994772394941
1720,0.5467642243600003
1721,0.1591994648934906
1722,0.38756475946650939
1723,13.595195480000003
1724,16.362620128560164
1730,13.504989439945542
1952,6.699999999999993
1953,9.51460414480015
2,1, 7, 1, 0,13, 0.00,60.00,Sunday
7,30.86416666666667
652,22.56636100358879
1717,10296.83821008661
1720,0.5467642243600003
1721,0.2612512992345333
1722,0.28551292512546685
1723,11.71079975999999
1724,16.206516385445349
1730,13.298029549386172
1952,6.699999999999993
1953,11.242870653278127
2,1, 7, 1, 0,14, 0.00,60.00,Sunday
7,29.717500000000006
652,22.32084251474602
1717,11631.686829680253
1720,0.5467642243600003
1721,0.3124667456314757
1722,0.23429747872852423
1723,10.587003119999999
1724,15.663895377535555
1730,13.353925579803136
1952,6.699999999999993
1953,11.824031109521725
2,1, 7, 1, 0,15, 0.00,60.00,Sunday
7,28.613333333333335
652,21.945031308494536
1717,11847.922775226578
1720,0.5467642243600003
1721,0.3412233691691506
1722,0.20554085519084945
1723,9.888261230000009
1724,15.058472064501789
1730,13.381930328646133
1952,6.699999999999993
1953,11.917340004797684
2,1, 7, 1, 0,16, 0.00,60.00,Sunday
7,28.0275
652,21.8395141690496
1717,3609.445680696525
1720,0.5467642243600003
1721,0.09554793550877633
1722,0.45121628885122369
1723,14.355624359999986
1724,15.932744302530516
1730,13.547634673007434
1952,6.699999999999993
1953,8.32430972424803
2,1, 7, 1, 0,17, 0.00,60.00,Sunday
7,25.276666666666665
652,21.434001516397495
1717,9459.881780072772
1720,0.5467642243600003
1721,0.268529594797106
1722,0.278234629562894
1723,11.774173949999986
1724,15.904540890588573
1730,14.035698737696329
1952,7.3823564174495959
1953,11.559878242206303
2,1, 7, 1, 0,18, 0.00,60.00,Sunday
7,23.594999999999997
652,20.930399257160027
1717,5475.47871801784
1720,0.5467642243600003
1721,0.16953685923212687
1722,0.3772273651278732
1723,13.70700918
1724,16.099033318140536
1730,14.426369854086646
1952,8.233382334380554
1953,10.672587480835315
2,1, 7, 1, 0,19, 0.00,60.00,Sunday
7,23.604999999999995
652,20.867645448971854
1717,0.0
1720,0.0
1721,0.0
1722,0.0
1723,13.70700918
1724,13.70700918
1730,13.821743896237587
1952,8.381801016317308
1953,8.381801016317308
2,1, 7, 1, 0,20, 0.00,60.00,Sunday
7,21.917500000000005
652,20.77287018328837
1717,7108.178574274193
1720,0.5467642243600003
1721,0.20290929896414873
1722,0.3438549253958513
1723,14.46155855999999
1724,17.567517646113005
1730,12.327646845853487
1952,9.04271929122196
1953,12.195869592045613
2,1, 7, 1, 0,21, 0.00,60.00,Sunday
7,20.304999999999994
652,20.350261929247414
1717,5588.012021582591
1720,0.5467642243600003
1721,0.17993029656406935
1722,0.36683392779593079
1723,14.996604459999988
1724,17.43869272282878
1730,12.519443934491884
1952,9.873288190102727
1953,12.362574907653304
2,1, 7, 1, 0,22, 0.00,60.00,Sunday
7,20.294999999999996
652,20.097172839760089
1717,6684.95147986057
1720,0.5467642243600003
1721,0.21956522752082609
1722,0.3271989968391739
1723,14.339022470000005
1724,17.259947467949837
1730,11.995168203311853
1952,9.868789815972605
1953,12.836904371053697
2,1, 7, 1, 0,23, 0.00,60.00,Sunday
7,20.0
652,19.904297112142467
1717,5519.593982997564
1720,0.5467642243600003
1721,0.18816958299709245
1722,0.35859464136290766
1723,14.753347640000009
1724,17.165367424128314
1730,11.995168203311853
1952,10.01977175868037
1953,12.478986705621074
2,1, 7, 1, 0,24, 0.00,60.00,Sunday
7,20.0
652,19.73673625664804
1717,6900.9612464551369
1720,0.5467642243600003
1721,0.24330945167883442
1722,0.30345477268116546
1723,13.884642519999977
1724,16.899558154800056
1730,11.995168203311853
1952,10.019819819819825
1953,13.081918865297
2,2, 7, 2, 0, 1, 0.00,60.00,Monday
7,20.0
652,19.409884762588378
1717,11603.858771460504
1720,0.5467642243600003
1721,0.47584438316629137
1722,0.07091984119370866
1723,10.818500329266053
1724,15.88356669202313
1730,11.995168203311853
1952,10.019819819819825
1953,15.132028160230166
2,2, 7, 2, 0, 2, 0.00,60.00,Monday
7,20.0
652,18.958036735020295
1717,8783.913484591623
1720,0.5467642243600003
1721,0.42303162354247089
1722,0.12373260081752918
1723,11.19626528225896
1724,15.03084929632988
1730,11.995168203311853
1952,10.019819819819825
1953,13.901550912404769
2,2, 7, 2, 0, 3, 0.00,60.00,Monday
7,19.440833333333335
652,18.636353376801194
1717,7213.8325299896919
1720,0.5467642243600003
1721,0.40409038903688596
1722,0.1426738353231142
1723,11.46591723440503
1724,14.615334966801897
1730,11.995168203311853
1952,10.287888412389302
1953,13.484456864943703
2,2, 7, 2, 0, 4, 0.00,60.00,Monday
7,19.154166666666666
652,18.412694092890605
1717,6405.792797293271
1720,0.5467642243600003
1721,0.3881663370526305
1722,0.15859788730736969
1723,11.653610761329855
1724,14.45040604915384
1730,11.995168203311853
1952,10.442927392517005
1953,13.286875935671914
2,2, 7, 2, 0, 5, 0.00,60.00,Monday
7,19.399999999999996
652,18.270171195584454
1717,5992.276289277964
1720,0.5467642243600003
1721,0.35758211448148249
1722,0.18918210987851759
1723,11.773352854546566
1724,14.38969542898104
1730,11.995168203311853
1952,10.317157168066668
1953,12.980654615355059
2,2, 7, 2, 0, 6, 0.00,60.00,Monday
7,19.399999999999996
652,18.197630016157338
1717,5805.853528144306
1720,0.5467642243600003
1721,0.34837456463405278
1722,0.19838965972594722
1723,11.83471954340459
1724,14.369711137877733
1730,11.995168203311853
1952,10.31711711711712
1953,12.899264413385407
2,2, 7, 2, 0, 7, 0.00,60.00,Monday
7,19.705
652,18.407919473209885
1717,6110.685640132727
1720,0.5467642243600003
1721,0.35664136326793108
1722,0.19012286109206909
1723,11.665216324773886
1724,14.333175108305137
1730,13.220045510078668
1952,10.17089788480649
1953,12.886010080500484
2,2, 7, 2, 0, 8, 0.00,60.00,Monday
7,21.118333333333337
652,19.473228125835158
1717,7735.12399132364
1720,0.5467642243600003
1721,0.3992845556560898
1722,0.14747966870391028
1723,10.792324078395346
1724,14.168659561123223
1730,11.398946695250228
1952,9.48373069582031
1953,12.90720780313241
2,2, 7, 2, 0, 9, 0.00,60.00,Monday
7,23.62333333333333
652,20.08603007661977
1717,8552.233382676439
1720,0.5467642243600003
1721,0.3602289853857757
1722,0.18653523897422437
1723,10.267056566641408
1724,13.999511551280602
1730,11.345767404857395
1952,8.247549536458142
1953,12.027139054813289
2,2, 7, 2, 0,10, 0.00,60.00,Monday
7,25.55916666666667
652,20.647248582722097
1717,9383.369256346079
1720,0.5467642243600003
1721,0.34198310143224217
1722,0.20478112292775786
1723,9.8012747735469
1724,13.895877810904551
1730,11.345767404857395
1952,7.274498035090321
1953,11.416228872595969
2,2, 7, 2, 0,11, 0.00,60.00,Monday
7,26.65916666666666
652,21.215182379120198
1717,10261.842736887222
1720,0.5467642243600003
1721,0.35220603424313187
1722,0.1945581901168682
1723,9.329062117129645
1724,13.806295155056067
1730,11.345767404857395
1952,6.783661685662574
1953,11.308015092211603
2,2, 7, 2, 0,12, 0.00,60.00,Monday
7,28.06416666666667
652,21.848575328943764
1717,11281.39572030393
1720,0.5467642243600003
1721,0.3868378717189767
1722,0.15992635264102335
1723,8.801856244669767
1724,13.723052267650138
1730,11.345767404857395
1952,6.699999999999993
1953,11.668308096511219
2,2, 7, 2, 0,13, 0.00,60.00,Monday
7,29.459166666666666
652,23.891642889355514
1717,13487.930208348866
1720,0.5467642243600003
1721,0.5335746826203712
1722,0.013189541739628998
1723,7.666587871577433
1724,13.548092920303337
1730,11.345767404857395
1952,7.423513197951065
1953,13.381567845946439
2,2, 7, 2, 0,14, 0.00,60.00,Monday
7,29.440833333333328
652,23.03704057941671
1717,13009.793495303573
1720,0.5467642243600003
1721,0.4772500979088171
1722,0.06951412645118284
1723,7.842696699900835
1724,13.516046618253837
1730,11.345767404857395
1952,6.9235946108174739
1953,12.65547716029252
2,2, 7, 2, 0,15, 0.00,60.00,Monday
7,29.76416666666667
652,22.875605655629607
1717,12773.24562958608
1720,0.5467642243600003
1721,0.45119396129917718
1722,0.09557026306082271
1723,7.936975486218707
1724,13.507349043008566
1730,11.345767404857395
1952,6.699999999999993
1953,12.317472028266309
2,2, 7, 2, 0,16, 0.00,60.00,Monday
7,30.854166666666669
652,22.841032228371593
1717,12670.474493668378
1720,0.5467642243600003
1721,0.44875841629028326
1722,0.0980058080697168
1723,7.964118171302198
1724,13.48972319851033
1730,11.345767404857395
1952,6.699999999999993
1953,12.272703925400826
2,2, 7, 2, 0,17, 0.00,60.00,Monday
7,30.84583333333334
652,22.65798371052296
1717,12321.749242863983
1720,0.5467642243600003
1721,0.43658467497077477
1722,0.11017954938922529
1723,8.115190359948695
1724,13.488986503222839
1730,11.345767404857395
1952,6.699999999999993
1953,12.120897416899206
2,2, 7, 2, 0,18, 0.00,60.00,Monday
7,30.59999999999997
652,23.97819294163857
1717,13492.085615111373
1720,0.5467642243600003
1721,0.538483709130197
1722,0.008280515229803269
1723,7.486248852942484
1724,13.3692149135465
1730,11.345767404857395
1952,7.306302126237947
1953,13.266961843980868
2,2, 7, 2, 0,19, 0.00,60.00,Monday
7,29.430833333333337
652,21.587762361165049
1717,10268.273924720388
1720,0.5467642243600003
1721,0.37137275584242249
1722,0.1753914685175775
1723,8.97917806995301
1724,13.45861618061546
1730,30.318985432256335
1952,6.755316875768559
1953,11.285326909050669
2,2, 7, 2, 0,20, 0.00,60.00,Monday
7,26.927500000000003
652,20.123289474049579
1717,8125.81519880488
1720,0.5467642243600003
1721,0.2826055915658253
1722,0.2641586327941747
1723,10.2134994895599
1724,13.759780735902897
1730,32.075965160405448
1952,6.806747806659074
1953,10.40016276882019
2,2, 7, 2, 0,21, 0.00,60.00,Monday
7,24.430833333333334
652,19.427341734218325
1717,7293.393422391354
1720,0.5467642243600003
1721,0.28604458192719869
1722,0.2607196424328013
1723,10.80311074932602
1724,13.986658614988848
1730,31.970729718472
1952,7.805335827108237
1953,11.036025462661252
2,2, 7, 2, 0,22, 0.00,60.00,Monday
7,23.045833333333339
652,19.032121220368503
1717,6847.53354031533
1720,0.5467642243600003
1721,0.29543541343725718
1722,0.25132881092274297
1723,11.136513662223056
1724,14.125732448187247
1730,21.277015050506578
1952,8.506349810575625
1953,11.542714868131192
2,2, 7, 2, 0,23, 0.00,60.00,Monday
7,22.494999999999999
652,18.834014247765439
1717,6644.590145531558
1720,0.5467642243600003
1721,0.2971490647086371
1722,0.2496151596513628
1723,11.302333134063075
1724,14.203096944899729
1730,12.494698009611346
1952,8.778611613793512
1953,11.726523935463538
2,2, 7, 2, 0,24, 0.00,60.00,Monday
7,21.640833333333334
652,18.647343366483985
1717,6390.358719969419
1720,0.5467642243600003
1721,0.30731380230649726
1722,0.2394504220535029
1723,11.457910372884758
1724,14.247811070775635
1730,11.989855053432282
1952,9.197750261159757
1953,12.034801571088862
End of Data
 Number of Records Written=        1056
