Program Version,EnergyPlus, Version 9.5.0-de239b2e5f, YMD=2021.07.19 13:57
1,5,Environment Title[],Latitude[deg],Longitude[deg],Time Zone[],Elevation[m]
2,8,Day of Simulation[],Month[],Day of Month[],DST Indicator[1=yes 0=no],Hour[],StartMinute[],EndMinute[],DayType
3,5,Cumulative Day of Simulation[],Month[],Day of Month[],DST Indicator[1=yes 0=no],DayType  ! When Daily Report Variables Requested
4,2,Cumulative Days of Simulation[],Month[]  ! When Monthly Report Variables Requested
5,1,Cumulative Days of Simulation[] ! When Run Period Report Variables Requested
6,1,Calendar Year of Simulation[] ! When Annual Report Variables Requested
7,1,Environment,Site Outdoor Air Drybulb Temperature [C] !Hourly
652,1,PERIMETER_BOT_ZN_1,Zone Mean Air Temperature [C] !Hourly
1717,1,PERI1_TOP_LOTEMP,Zone Radiant HVAC Cooling Rate [W] !Hourly
1720,1,PERI1_TOP_LOTEMP,Zone Radiant HVAC Mass Flow Rate [kg/s] !Hourly
1721,1,PERI1_TOP_LOTEMP,Zone Radiant HVAC Injection Mass Flow Rate [kg/s] !Hourly
1722,1,PERI1_TOP_LOTEMP,Zone Radiant HVAC Recirculation Mass Flow Rate [kg/s] !Hourly
1723,1,PERI1_TOP_LOTEMP,Zone Radiant HVAC Inlet Temperature [C] !Hourly
1724,1,PERI1_TOP_LOTEMP,Zone Radiant HVAC Outlet Temperature [C] !Hourly
1730,1,PERI2_TOP_LOTEMP,Zone Radiant HVAC Outlet Temperature [C] !Hourly
1952,1,PERI1_TOP_LOTEMP_CHW_INLET,System Node Temperature [C] !Hourly
1953,1,PERI1_TOP_LOTEMP_CHW_OUTLET,System Node Temperature [C] !Hourly
End of Data Dictionary
1,ATLANTA-HARTSFIELD.JACKSON.INTL.AP_GA_USA ANN HTG 99.6% CONDNS DB,  33.63, -84.43,  -5.00, 308.00
2,1, 1,21, 0, 1, 0.00,60.00,WinterDesignDay
7,-6.300000000000007
652,16.051292496802814
1717,0.0
1720,0.27529600000000006
1721,0.04281524426242808
1722,0.23248075573757194
1723,30.020167904309646
1724,28.900128674779169
1730,40.847851297250077
1952,12.200000000024913
1953,12.200000000024913
2,1, 1,21, 0, 2, 0.00,60.00,WinterDesignDay
7,-6.300000000000007
652,16.04967177145685
1717,0.0
1720,0.31462400000000009
1721,0.048944607527027967
1722,0.265679392472972
1723,30.043211981427523
1724,28.76338242859434
1730,40.847168903872098
1952,12.200000000024913
1953,12.200000000024913
2,1, 1,21, 0, 3, 0.00,60.00,WinterDesignDay
7,-6.300000000000007
652,16.049873333433469
1717,0.0
1720,0.27529600000000006
1721,0.042885961452911899
1722,0.2324100385470881
1723,30.025030187349829
1724,28.903146765888093
1730,40.84655082405357
1952,12.200000000024913
1953,12.200000000024913
2,1, 1,21, 0, 4, 0.00,60.00,WinterDesignDay
7,-6.300000000000007
652,16.049194020368377
1717,0.0
1720,0.27529600000000006
1721,0.04291860661278943
1722,0.23237739338721054
1723,30.034713336519336
1724,28.911966290478355
1730,40.845989784274717
1952,12.200000000024913
1953,12.200000000024913
2,1, 1,21, 0, 5, 0.00,60.00,WinterDesignDay
7,-6.300000000000007
652,16.049710385137435
1717,0.0
1720,0.27529600000000006
1721,0.04288610733281196
1722,0.232409892667188
1723,30.03369910955464
1724,28.9117862354823
1730,40.84547919047124
1952,12.200000000024913
1953,12.200000000024913
2,1, 1,21, 0, 6, 0.00,60.00,WinterDesignDay
7,-6.300000000000007
652,16.04868260858905
1717,0.0
1720,0.27529600000000006
1721,0.04292796580659044
1722,0.23236803419340958
1723,30.041849781197269
1724,28.91884102429573
1730,40.84501400041586
1952,12.200000000024913
1953,12.200000000024913
2,1, 1,21, 0, 7, 0.00,60.00,WinterDesignDay
7,-6.300000000000007
652,16.092909520184798
1717,0.0
1720,0.039328
1721,0.006324441658241112
1722,0.03300355834175889
1723,30.006427895501444
1724,29.83997513487344
1730,40.856344972096348
1952,12.200000000024913
1953,12.200000000024913
2,1, 1,21, 0, 8, 0.00,60.00,WinterDesignDay
7,-6.300000000000007
652,16.05122271762102
1717,0.0
1720,0.117984
1721,0.018954354716360225
1722,0.09902964528363979
1723,30.01369966641479
1724,29.514828843683764
1730,40.86430032199745
1952,12.200000000024913
1953,12.200000000024913
2,1, 1,21, 0, 9, 0.00,60.00,WinterDesignDay
7,-6.300000000000007
652,16.058710730765893
1717,0.0
1720,0.078656
1721,0.012647500816686702
1722,0.0660084991833133
1723,30.027164079181725
1724,29.694305537469693
1730,40.86644871814018
1952,12.200000000024913
1953,12.200000000024913
2,1, 1,21, 0,10, 0.00,60.00,WinterDesignDay
7,-6.300000000000007
652,16.053794298409128
1717,0.0
1720,0.117984
1721,0.018946455982614086
1722,0.0990375440173859
1723,30.01645956565109
1724,29.517855005775293
1730,40.86769094769845
1952,12.200000000024913
1953,12.200000000024913
2,1, 1,21, 0,11, 0.00,60.00,WinterDesignDay
7,-6.300000000000007
652,16.04848095332204
1717,0.0
1720,0.117984
1721,0.018975863350880846
1722,0.09900813664911916
1723,30.029779130425248
1724,29.53042249918558
1730,40.86860882256513
1952,12.200000000024913
1953,12.200000000024913
2,1, 1,21, 0,12, 0.00,60.00,WinterDesignDay
7,-6.300000000000007
652,16.053891404911579
1717,0.0
1720,0.078656
1721,0.01262186014087708
1722,0.06603413985912292
1723,30.02005702291177
1724,29.687920087021668
1730,40.869374818012797
1952,12.200000000024913
1953,12.200000000024913
2,1, 1,21, 0,13, 0.00,60.00,WinterDesignDay
7,-6.300000000000007
652,16.057687116175669
1717,0.0
1720,0.117984
1721,0.018961662948764749
1722,0.09902233705123526
1723,30.03194074665174
1724,29.532993286863026
1730,40.87004519108023
1952,12.200000000024913
1953,12.200000000024913
2,1, 1,21, 0,14, 0.00,60.00,WinterDesignDay
7,-6.300000000000007
652,16.052163085869624
1717,0.0
1720,0.117984
1721,0.018978985360011696
1722,0.09900501463998832
1723,30.03416826601497
1724,29.534767825245017
1730,40.87064133792578
1952,12.200000000024913
1953,12.200000000024913
2,1, 1,21, 0,15, 0.00,60.00,WinterDesignDay
7,-6.300000000000007
652,16.051593652584953
1717,0.0
1720,0.117984
1721,0.018952233793226328
1722,0.09903176620677368
1723,30.019674300690875
1724,29.520978777540394
1730,40.87117482313094
1952,12.200000000024913
1953,12.200000000024913
2,1, 1,21, 0,16, 0.00,60.00,WinterDesignDay
7,-6.300000000000007
652,16.05849190266736
1717,0.0
1720,0.078656
1721,0.012614663345128046
1722,0.06604133665487196
1723,30.026627110545826
1724,29.69469779944956
1730,40.87165307791413
1952,12.200000000024913
1953,12.200000000024913
2,1, 1,21, 0,17, 0.00,60.00,WinterDesignDay
7,-6.300000000000007
652,16.05733374460486
1717,0.0
1720,0.117984
1721,0.01894772976380502
1722,0.09903627023619498
1723,30.020981827984316
1724,29.52241480702198
1730,40.87208217593514
1952,12.200000000024913
1953,12.200000000024913
2,1, 1,21, 0,18, 0.00,60.00,WinterDesignDay
7,-6.300000000000007
652,16.052558928224778
1717,0.0
1720,0.117984
1721,0.01894520272526833
1722,0.09903879727473168
1723,30.03208944524781
1724,29.533594614361485
1730,40.87246756711192
1952,12.200000000024913
1953,12.200000000024913
2,1, 1,21, 0,19, 0.00,60.00,WinterDesignDay
7,-6.300000000000007
652,16.041961590605493
1717,0.0
1720,0.4326080000000001
1721,0.06767563811356901
1722,0.36493236188643099
1723,30.10789521648253
1724,28.338724410420867
1730,40.86101525428719
1952,12.200000000024913
1953,12.200000000024913
2,1, 1,21, 0,20, 0.00,60.00,WinterDesignDay
7,-6.300000000000007
652,16.045137506644087
1717,0.0
1720,0.23596800000000005
1721,0.03676693528408565
1722,0.19920106471591435
1723,30.01636687635296
1724,29.054227000668719
1730,40.85297387898963
1952,12.200000000024913
1953,12.200000000024913
2,1, 1,21, 0,21, 0.00,60.00,WinterDesignDay
7,-6.300000000000007
652,16.037761904783687
1717,0.0
1720,0.27529600000000006
1721,0.04291853065112366
1722,0.23237746934887633
1723,30.012948393460886
1724,28.889563801887936
1730,40.85075114045448
1952,12.200000000024913
1953,12.200000000024913
2,1, 1,21, 0,22, 0.00,60.00,WinterDesignDay
7,-6.300000000000007
652,16.05198722233478
1717,0.0
1720,0.31462400000000009
1721,0.048992249381614349
1722,0.2656317506183857
1723,30.05472999261917
1724,28.773819185258657
1730,40.84943731519674
1952,12.200000000024913
1953,12.200000000024913
2,1, 1,21, 0,23, 0.00,60.00,WinterDesignDay
7,-6.300000000000007
652,16.05050458968803
1717,0.0
1720,0.31462400000000009
1721,0.04896775144555288
1722,0.2656562485544471
1723,30.04898491348731
1724,28.76860072204115
1730,40.84844890398689
1952,12.200000000024913
1953,12.200000000024913
2,1, 1,21, 0,24, 0.00,60.00,WinterDesignDay
7,-6.300000000000007
652,16.052974156462726
1717,0.0
1720,0.31462400000000009
1721,0.048822173435864497
1722,0.2658018265641355
1723,30.02327572230002
1724,28.746643652439908
1730,40.84761348825653
1952,12.200000000024913
1953,12.200000000024913
1,ATLANTA-HARTSFIELD.JACKSON.INTL.AP_GA_USA ANN CLG .4% CONDNS DB=>MWB,  33.63, -84.43,  -5.00, 308.00
2,1, 7,21, 0, 1, 0.00,60.00,SummerDesignDay
7,26.32025
652,19.17655478906631
1717,10105.15479413403
1720,2.3997551999999997
1721,0.4944093259942389
1722,1.9053458740057612
1723,11.017745447691432
1724,12.022789104126682
1730,28.954107891048257
1952,6.8834496140372709
1953,7.942200868954833
2,1, 7,21, 0, 2, 0.00,60.00,SummerDesignDay
7,25.84683333333334
652,19.07877981961244
1717,9960.95328562243
1720,2.3997551999999997
1721,0.5042183421959113
1722,1.895536857804089
1723,11.099839512899765
1724,12.090564411516665
1730,29.0011498651533
1952,7.119586882741276
1953,8.164020642618328
2,1, 7,21, 0, 3, 0.00,60.00,SummerDesignDay
7,25.515125
652,19.002238183843255
1717,9819.709348907896
1720,2.3997551999999997
1721,0.5092364017055764
1722,1.8905187982944237
1723,11.16383866107042
1724,12.140533226793071
1730,29.066831276932836
1952,7.284739011941207
1953,8.315143423515023
2,1, 7,21, 0, 4, 0.00,60.00,SummerDesignDay
7,25.230124999999995
652,18.937774060296179
1717,9686.964646911567
1720,2.3997551999999997
1721,0.5133538172991082
1722,1.8864013827008919
1723,11.217679596922287
1724,12.181185879879547
1730,29.133638612416637
1952,7.4259628378378379
1953,8.443179794901733
2,1, 7,21, 0, 5, 0.00,60.00,SummerDesignDay
7,24.993416666666673
652,18.881969740231829
1717,9568.109962278504
1720,2.3997551999999997
1721,0.5164273886752603
1722,1.8833278113247399
1723,11.264317896688788
1724,12.216015110272706
1730,29.19976953056725
1952,7.544027675604874
1953,8.549436280792192
2,1, 7,21, 0, 6, 0.00,60.00,SummerDesignDay
7,24.996583333333335
652,18.843794419666783
1717,9507.67540548334
1720,2.3997551999999997
1721,0.5106509153731956
1722,1.8891042846268043
1723,11.296695006401816
1724,12.242389844442125
1730,29.326143760302015
1952,7.545573915632699
1953,8.544980643389227
2,1, 7,21, 0, 7, 0.00,60.00,SummerDesignDay
7,25.42804166666666
652,19.203685412810719
1717,10786.31298734522
1720,2.3997551999999997
1721,0.5703930557590314
1722,1.8293621442409689
1723,11.003100404791514
1724,12.075886221749137
1730,30.14871662786393
1952,7.335703317964299
1953,8.462196508108223
2,1, 7,21, 0, 8, 0.00,60.00,SummerDesignDay
7,26.575958333333334
652,19.429060224187788
1717,11073.960224604174
1720,2.3997551999999997
1721,0.5464034928484732
1722,1.8533517071515265
1723,10.813123572100608
1724,11.914458209870615
1730,30.20019872169972
1952,6.840959799294429
1953,7.995998888143293
2,1, 7,21, 0, 9, 0.00,60.00,SummerDesignDay
7,28.287541666666664
652,19.757522351118703
1717,11951.011553085358
1720,2.3997551999999997
1721,0.5930017790403871
1722,1.806753420959613
1723,10.540307138978811
1724,11.72877382946058
1730,30.20019872169972
1952,6.699999999999995
1953,7.942166945746165
2,1, 7,21, 0,10, 0.00,60.00,SummerDesignDay
7,29.995958333333328
652,20.151085454440726
1717,12994.166530762048
1720,2.3997551999999997
1721,0.6724378372208986
1722,1.7273173627791013
1723,10.213888811943301
1724,11.50597059653664
1730,30.20019872169972
1952,6.699999999999993
1953,8.045777020658689
2,1, 7,21, 0,11, 0.00,60.00,SummerDesignDay
7,31.514374999999995
652,20.701952543230378
1717,14570.43591217078
1720,2.3997551999999997
1721,0.8011242551197014
1722,1.5986309448802989
1723,9.75676650703915
1724,11.205378093982395
1730,30.20019872169972
1952,6.699999999999993
1953,8.20229917239432
2,1, 7,21, 0,12, 0.00,60.00,SummerDesignDay
7,32.697916666666667
652,21.291107564487768
1717,16062.22166836279
1720,2.3997551999999997
1721,0.9526291656178834
1722,1.4471260343821167
1723,9.2649742966673
1724,10.861639894710033
1730,30.20019872169972
1952,6.699999999999993
1953,8.350344365738314
2,1, 7,21, 0,13, 0.00,60.00,SummerDesignDay
7,33.55133333333333
652,21.750254414920016
1717,16971.574556923577
1720,2.3997551999999997
1721,1.080764097166626
1722,1.3189911028333748
1723,8.879850638161044
1724,10.5666946883791
1730,30.20019872169972
1952,6.699999999999993
1953,8.440515914641266
2,1, 7,21, 0,14, 0.00,60.00,SummerDesignDay
7,34.16645833333333
652,22.001048122458259
1717,17194.383332367655
1720,2.3997551999999997
1721,1.150534535102754
1722,1.2492206648972464
1723,8.667690379073246
1724,10.376559365956237
1730,30.20019872169972
1952,6.699999999999993
1953,8.462537049120604
2,1, 7,21, 0,15, 0.00,60.00,SummerDesignDay
7,34.40000000000004
652,22.012920076254937
1717,16741.68351181011
1720,2.3997551999999997
1721,1.1391444753696594
1722,1.2606107246303407
1723,8.654410248822707
1724,10.31827992483154
1730,30.20019872169972
1952,6.699999999999993
1953,8.417537500320265
2,1, 7,21, 0,16, 0.00,60.00,SummerDesignDay
7,34.110250000000018
652,21.79729464661327
1717,15769.367599165798
1720,2.3997551999999997
1721,1.0521040942935374
1722,1.3476511057064627
1723,8.831335519426123
1724,10.398663693472975
1730,30.20019872169972
1952,6.699999999999993
1953,8.320999168958118
2,1, 7,21, 0,17, 0.00,60.00,SummerDesignDay
7,33.44366666666667
652,21.456037800686564
1717,14735.46113237397
1720,2.3997551999999997
1721,0.9395757846639924
1722,1.4601794153360078
1723,9.115158327595023
1724,10.579864742525084
1730,30.20019872169972
1952,6.699999999999993
1953,8.218382496948215
2,1, 7,21, 0,18, 0.00,60.00,SummerDesignDay
7,32.58708333333333
652,21.110911534416059
1717,13905.400115058184
1720,2.3997551999999997
1721,0.843963591780369
1722,1.555791608219631
1723,9.402732905069229
1724,10.785063899643557
1730,30.20019872169972
1952,6.699999999999993
1953,8.136012231909115
2,1, 7,21, 0,19, 0.00,60.00,SummerDesignDay
7,31.395624999999997
652,20.749793010443985
1717,13036.847827415204
1720,2.3997551999999997
1721,0.7538144213480094
1722,1.6459407786519905
1723,9.703235208595107
1724,10.999353573885236
1730,30.20019872169972
1952,6.699999999999993
1953,8.049804990761763
2,1, 7,21, 0,20, 0.00,60.00,SummerDesignDay
7,30.16379166666667
652,20.43392212233878
1717,12455.223401656154
1720,2.3997551999999997
1721,0.6882483740945272
1722,1.711506825905473
1723,9.967961279200966
1724,11.206363832552814
1730,30.20019872169972
1952,6.699999999999993
1953,7.992093885513207
2,1, 7,21, 0,21, 0.00,60.00,SummerDesignDay
7,29.215374999999999
652,20.162169752615808
1717,11932.062613153505
1720,2.3997551999999997
1721,0.6358524320475875
1722,1.7639027679524127
1723,10.19487652789578
1724,11.381341943497385
1730,30.20019872169972
1952,6.699999999999993
1953,7.940160359312543
2,1, 7,21, 0,22, 0.00,60.00,SummerDesignDay
7,28.360375
652,19.95657217144564
1717,11581.994007277275
1720,2.3997551999999997
1721,0.6003569563614783
1722,1.7993982436385215
1723,10.367056815375398
1724,11.518770003966179
1730,30.20019872169972
1952,6.699999999999993
1953,7.905410779715806
2,1, 7,21, 0,23, 0.00,60.00,SummerDesignDay
7,27.60195833333334
652,19.49450556509819
1717,10238.756203791645
1720,2.3997551999999997
1721,0.5080058032132229
1722,1.891749396786777
1723,10.747762811543339
1724,11.766015126558102
1730,28.76823840931739
1952,6.699999999999993
1953,7.771955760884473
2,1, 7,21, 0,24, 0.00,60.00,SummerDesignDay
7,26.936958333333334
652,19.314540109583335
1717,10310.368508611447
1720,2.3997551999999997
1721,0.49559642962956726
1722,1.9041587703704329
1723,10.902749175074577
1724,11.928169334201764
1730,28.650585810251603
1952,6.7027041521533159
1953,7.781830140875885
1,RUNPERIOD 1,  33.63, -84.43,  -5.00, 308.00
2,1, 7, 1, 0, 1, 0.00,60.00,Sunday
7,21.118333333333337
652,17.977198141578737
1717,6690.843354421832
1720,0.4799510400000001
1721,0.42868211958403876
1722,0.05126892041596124
1723,10.006682856384645
1724,10.671950855144557
1730,11.98876014841608
1952,9.585328337282256
1953,10.261334725559755
2,1, 7, 1, 0, 2, 0.00,60.00,Sunday
7,22.098333333333334
652,17.97879045993433
1717,5972.981495406242
1720,0.5199469600000001
1721,0.32822437416872926
1722,0.19172258583127073
1723,10.661306319999996
1724,11.25530955063427
1730,11.98876014841608
1952,8.97285038577981
1953,9.578489074859365
2,1, 7, 1, 0, 3, 0.00,60.00,Sunday
7,21.949166666666675
652,17.980892080396339
1717,4877.9561144182239
1720,0.4399551200000001
1721,0.26219297929155357
1722,0.17776214070844646
1723,10.876332119999996
1724,11.361474214313855
1730,11.98876014841608
1952,9.048243319603254
1953,9.543231559763962
2,1, 7, 1, 0, 4, 0.00,60.00,Sunday
7,21.79833333333333
652,17.97287264036331
1717,5337.024049337865
1720,0.31996736
1721,0.3020270055979136
1722,0.017940354402086368
1723,9.50832795933332
1724,10.03888062796866
1730,11.98876014841608
1952,9.114990107711775
1953,9.652700284311968
2,1, 7, 1, 0, 5, 0.00,60.00,Sunday
7,21.700000000000025
652,17.979715703101353
1717,5965.877100603529
1720,0.4799510400000001
1721,0.3262631367739354
1722,0.15368790322606455
1723,10.5856725295
1724,11.178966936000825
1730,11.98876014841608
1952,9.175782017176374
1953,9.779816805153644
2,1, 7, 1, 0, 6, 0.00,60.00,Sunday
7,21.954166666666663
652,17.966615138198465
1717,6863.993073585482
1720,0.3999592
1721,0.3999591999999999
1722,0.0
1723,9.257271135870372
1724,9.93955401175221
1730,13.053336882305869
1952,9.081997038072279
1953,9.773225343195968
2,1, 7, 1, 0, 7, 0.00,60.00,Sunday
7,22.200000000000025
652,17.984174560627556
1717,8263.351910811045
1720,0.6399347200000001
1721,0.49817318944859187
1722,0.1417615305514081
1723,9.785432301719063
1724,10.607018171958062
1730,14.196533136443744
1952,8.932954429037629
1953,9.768857535985339
2,1, 7, 1, 0, 8, 0.00,60.00,Sunday
7,23.31833333333333
652,18.001651646667044
1717,10445.813524385123
1720,1.2798694400000004
1721,0.6154372808656533
1722,0.6644321591343464
1723,10.553743228499992
1724,11.592540973712917
1730,14.299457301033977
1952,8.423215831103019
1953,9.490654117325305
2,1, 7, 1, 0, 9, 0.00,60.00,Sunday
7,25.823333333333335
652,17.988451759432654
1717,14130.94807646053
1720,0.9599020800000003
1721,0.8837845238164283
1722,0.07611755618357186
1723,7.554607198806471
1724,8.95848785496469
1730,14.962908164065637
1952,7.235847442347872
1953,8.661186599828387
2,1, 7, 1, 0,10, 0.00,60.00,Sunday
7,27.759166666666667
652,18.6729338137794
1717,1415.9596415395798
1720,1.1998776000000005
1721,0.06115172805051932
1722,1.1387258719494809
1723,12.584935160000003
1724,12.725842453805516
1730,14.451214373716454
1952,6.700159384473824
1953,6.867935360275203
2,1, 7, 1, 0,11, 0.00,60.00,Sunday
7,29.164166666666668
652,19.8369074576984
1717,4234.461401157715
1720,2.27976744
1721,0.1514911387065357
1722,2.128276301293465
1723,13.68776077999999
1724,14.109236337469224
1730,13.407748883719405
1952,6.699999999999993
1953,7.1725368237078579
2,1, 7, 1, 0,12, 0.00,60.00,Sunday
7,30.0
652,20.788703487184884
1717,8593.817407685894
1720,2.3997551999999997
1721,0.28615709603001557
1722,2.1135981039699858
1723,13.467593739999991
1724,14.322922216665685
1730,13.504825817449702
1952,6.699999999999993
1953,7.609073786286339
2,1, 7, 1, 0,13, 0.00,60.00,Sunday
7,30.86416666666667
652,21.366791787539677
1717,10025.401061960225
1720,2.3997551999999997
1721,0.3328047170274736
1722,2.066950482972526
1723,13.284193189999998
1724,14.281952384906374
1730,13.298716066901287
1952,6.699999999999993
1953,7.751501679812421
2,1, 7, 1, 0,14, 0.00,60.00,Sunday
7,29.717500000000006
652,20.991053397092494
1717,15366.85057714465
1720,2.3997551999999997
1721,0.5846908434932382
1722,1.8150643565067617
1723,11.637616630000017
1724,13.16625217246584
1730,13.355558624633069
1952,6.699999999999993
1953,8.282352677853313
2,1, 7, 1, 0,15, 0.00,60.00,Sunday
7,28.613333333333335
652,19.65003536622421
1717,28322.90860210415
1720,2.3997551999999997
1721,2.3997551999999997
1722,0.0
1723,6.753425736287853
1724,9.566508468130577
1730,13.383474770745386
1952,6.699999999999993
1953,9.566508468130577
2,1, 7, 1, 0,16, 0.00,60.00,Sunday
7,28.0275
652,19.392399704632245
1717,0.0
1720,0.0
1721,0.0
1722,0.0
1723,13.114456430000012
1724,13.114456430000012
1730,13.549036365899152
1952,6.699999999999993
1953,6.699999999999993
2,1, 7, 1, 0,17, 0.00,60.00,Sunday
7,25.276666666666665
652,19.892681816052464
1717,211.29749411200266
1720,0.4399551200000001
1721,0.010590209220809945
1722,0.42936491077919017
1723,14.764402560000006
1724,14.785440470593264
1730,14.03693010130563
1952,6.904688466682112
1953,6.934291884844565
2,1, 7, 1, 0,18, 0.00,60.00,Sunday
7,23.594999999999997
652,20.177308815969416
1717,865.9269164399518
1720,1.1198857600000003
1721,0.03405686624854113
1722,1.0858288937514589
1723,15.955351729999986
1724,16.04158962660857
1730,14.427552540528068
1952,8.182546490753185
1953,8.293881135750983
2,1, 7, 1, 0,19, 0.00,60.00,Sunday
7,23.604999999999995
652,20.133502328994056
1717,5626.464067950074
1720,2.3997551999999997
1721,0.187385579110265
1722,2.212369620889734
1723,15.543874970000019
1724,16.10417197421547
1730,13.823059903458267
1952,8.238417391234599
1953,8.85248891149111
2,1, 7, 1, 0,20, 0.00,60.00,Sunday
7,21.917500000000005
652,20.0374217399245
1717,1107.8650743676818
1720,1.5598408800000006
1721,0.04604375480600369
1722,1.5137971251939957
1723,16.863903019999979
1724,16.974254772615038
1730,12.329333782385785
1952,8.893458184858384
1953,9.037245707964705
2,1, 7, 1, 0,21, 0.00,60.00,Sunday
7,20.304999999999994
652,18.699818022478138
1717,26074.027524262256
1720,2.1597796800000008
1721,2.0479166402589787
1722,0.11186303974102067
1723,10.070979739999994
1724,12.663560781167649
1730,12.519074843757249
1952,9.874815295678206
1953,12.515720071444772
2,1, 7, 1, 0,22, 0.00,60.00,Sunday
7,20.294999999999996
652,17.979899874969
1717,4517.142747503586
1720,0.3999592
1721,0.3999592
1722,0.0
1723,9.90187954403741
1724,10.350999062395943
1730,11.992046510234257
1952,9.839564798467404
1953,10.297632312814902
2,1, 7, 1, 0,23, 0.00,60.00,Sunday
7,20.0
652,17.977011574369837
1717,5608.515882924056
1720,0.4399551200000001
1721,0.4399551200000001
1722,0.0
1723,10.067781905249854
1724,10.625444920688329
1730,11.992046510234257
1952,10.015468090873006
1953,10.582974339693952
2,1, 7, 1, 0,24, 0.00,60.00,Sunday
7,20.0
652,17.96854943014177
1717,5250.040267318122
1720,0.3999592
1721,0.39995919999999998
1722,0.0
1723,10.07351228772565
1724,10.595532323144309
1730,11.992046510234257
1952,10.019819772368477
1953,10.550788564130027
2,2, 7, 2, 0, 1, 0.00,60.00,Monday
7,20.0
652,17.994889285448975
1717,6518.349930576742
1720,0.9599020800000003
1721,0.4464530123027564
1722,0.5134490676972436
1723,11.931131258725193
1724,12.579617616587948
1730,11.992046510234257
1952,10.019819819817654
1953,10.689795213347434
2,2, 7, 2, 0, 2, 0.00,60.00,Monday
7,20.0
652,17.992542568680539
1717,5458.860286746406
1720,0.7599224800000002
1721,0.363453968122051
1722,0.396468511877949
1723,11.996955562342253
1724,12.54003789775585
1730,11.992046510234257
1952,10.019819819819825
1953,10.579914328767439
2,2, 7, 2, 0, 3, 0.00,60.00,Monday
7,19.440833333333335
652,17.98795702081992
1717,5397.045767093795
1720,0.7199265600000001
1721,0.3761415778699639
1722,0.3437849821300361
1723,11.996596186755259
1724,12.533528544342513
1730,11.992046510234257
1952,10.251737747411147
1953,10.804786893167073
2,2, 7, 2, 0, 4, 0.00,60.00,Monday
7,19.154166666666666
652,17.987569262233359
1717,4993.565157195803
1720,0.5999388000000001
1721,0.34523755781311857
1722,0.25470124218688136
1723,11.997503454421036
1724,12.494295342232294
1730,11.992046510234257
1952,10.45454136926324
1953,10.964763922736012
2,2, 7, 2, 0, 5, 0.00,60.00,Monday
7,19.399999999999996
652,17.98765249524517
1717,4561.537956992061
1720,0.5199469600000001
1721,0.2956870573920597
1722,0.22425990260794027
1723,11.995553476310262
1724,12.449364367158515
1730,11.992046510234257
1952,10.318633231212875
1953,10.784084028102557
2,2, 7, 2, 0, 6, 0.00,60.00,Monday
7,19.399999999999996
652,17.987995740259053
1717,5265.682077941999
1720,0.5999388000000001
1721,0.34113360311418086
1722,0.2588051968858192
1723,11.996699888350097
1724,12.520563653275392
1730,11.992046510234257
1952,10.317117117863793
1953,10.854411546963707
2,2, 7, 2, 0, 7, 0.00,60.00,Monday
7,19.705
652,18.007864352303039
1717,10356.512500237755
1720,1.7198245600000007
1721,0.7849459814279183
1722,0.9348785785720818
1723,11.991310116128736
1724,13.02163999411606
1730,13.218672971404886
1952,10.17494769988281
1953,11.243778735870042
2,2, 7, 2, 0, 8, 0.00,60.00,Monday
7,21.118333333333337
652,18.9288718202713
1717,12257.778191916954
1720,2.3997551999999997
1721,1.0260973572630646
1722,1.3736578427369355
1723,11.244589788153352
1724,12.463810526320865
1730,11.403310972252492
1952,9.4837318089007
1953,10.756663635489929
2,2, 7, 2, 0, 9, 0.00,60.00,Monday
7,23.62333333333333
652,19.198465468871985
1717,10527.982628474449
1720,2.3997551999999997
1721,0.7000326491938389
1722,1.6997225508061609
1723,11.002255955811627
1724,12.049347536727942
1730,11.350158193821585
1952,8.247549536458142
1953,9.348348477586479
2,2, 7, 2, 0,10, 0.00,60.00,Monday
7,25.55916666666667
652,19.645465481169038
1717,11617.471491315651
1720,2.3997551999999997
1721,0.64248111206504
1722,1.7572740879349596
1723,10.634835749086998
1724,11.790164779681979
1730,11.350158193821585
1952,7.27449803509032
1953,8.483528774743718
2,2, 7, 2, 0,11, 0.00,60.00,Monday
7,26.65916666666666
652,20.12594383656192
1717,12785.256518106558
1720,2.3997551999999997
1721,0.6732369758397397
1722,1.7265182241602602
1723,10.23555281795503
1724,11.50686930084318
1730,11.350158193821585
1952,6.783661685662574
1953,8.108673737725552
2,2, 7, 2, 0,12, 0.00,60.00,Monday
7,28.06416666666667
652,20.672860011661287
1717,14145.34322180949
1720,2.3997551999999997
1721,0.7817440108109973
1722,1.6180111891890028
1723,9.780359294730604
1724,11.186719155106589
1730,11.350158193821585
1952,6.699999999999993
1953,8.160047867750932
2,2, 7, 2, 0,13, 0.00,60.00,Monday
7,29.459166666666666
652,22.7720566738866
1717,20518.117315744097
1720,2.3997551999999997
1721,1.4931477352609227
1722,0.9066074647390774
1723,8.053654305493233
1724,10.09243040802778
1730,11.350158193821585
1952,6.699999999999993
1953,8.792433164388344
2,2, 7, 2, 0,14, 0.00,60.00,Monday
7,29.440833333333328
652,21.57052216408637
1717,13324.647784162511
1720,2.3997551999999997
1721,0.918210731138902
1722,1.4815444688610986
1723,9.001226667014603
1724,10.32563893141361
1730,11.350158193821585
1952,6.699999999999993
1953,8.078086304725716
2,2, 7, 2, 0,15, 0.00,60.00,Monday
7,29.76416666666667
652,21.447347592141733
1717,14544.175503309561
1720,2.3997551999999997
1721,0.9289439343249641
1722,1.4708112656750357
1723,9.127499690191
1724,10.573198814135964
1730,11.350158193821585
1952,6.699999999999993
1953,8.199375427126262
2,2, 7, 2, 0,16, 0.00,60.00,Monday
7,30.854166666666669
652,21.420344115199556
1717,14630.677420405771
1720,2.3997551999999997
1721,0.9273789697145022
1722,1.4723762302854984
1723,9.148101241108656
1724,10.602408622515329
1730,11.350158193821585
1952,6.699999999999993
1953,8.207984053928236
2,2, 7, 2, 0,17, 0.00,60.00,Monday
7,30.84583333333334
652,21.24899028157824
1717,14045.586950125602
1720,2.3997551999999997
1721,0.873099859602892
1722,1.5266553403971084
1723,9.28955481899664
1724,10.685769294577101
1730,11.350158193821585
1952,6.699999999999993
1953,8.149893683796299
2,2, 7, 2, 0,18, 0.00,60.00,Monday
7,30.59999999999997
652,22.75808874662026
1717,19082.07169489121
1720,2.3997551999999997
1721,1.443772433961588
1722,0.9559827660384118
1723,8.057369050713927
1724,9.95345311762841
1730,11.350158193821585
1952,6.699999999999993
1953,8.649741195019863
2,2, 7, 2, 0,19, 0.00,60.00,Monday
7,29.430833333333337
652,20.17568897756615
1717,7690.358257447266
1720,2.3997551999999997
1721,0.47994836515596886
1722,1.9198068348440314
1723,10.14407391312172
1724,10.9087244315339
1730,30.33734485082505
1952,6.699999999999993
1953,7.518344270366523
2,2, 7, 2, 0,20, 0.00,60.00,Monday
7,26.927500000000003
652,18.925909007276226
1717,7135.793602294265
1720,2.3997551999999997
1721,0.35848732614117687
1722,2.041267873858823
1723,11.213790076938569
1724,11.92354546795371
1730,32.09413349962021
1952,6.806747806659074
1953,7.570213812220505
2,2, 7, 2, 0,21, 0.00,60.00,Monday
7,24.430833333333334
652,18.38147731521169
1717,7352.1065404223249
1720,2.3997551999999997
1721,0.41028077994917758
1722,1.989474420050822
1723,11.676120091915243
1724,12.407487448491424
1730,31.988269240707728
1952,7.805335827108237
1953,8.590420911530418
2,2, 7, 2, 0,22, 0.00,60.00,Monday
7,23.045833333333339
652,18.06778222964583
1717,7251.5956101868819
1720,2.3997551999999997
1721,0.447616787275145
1722,1.952138412724855
1723,11.940996713925014
1724,12.662420486484402
1730,21.29233879644964
1952,8.506349810575625
1953,9.281495387229344
2,2, 7, 2, 0,23, 0.00,60.00,Monday
7,22.494999999999999
652,18.001349355181753
1717,5786.364902100726
1720,1.3998572000000005
1721,0.345774396631838
1722,1.0540828033681618
1723,11.99648657204526
1724,12.5721509824208
1730,12.500164660086579
1952,8.771940670401908
1953,9.378943286367854
2,2, 7, 2, 0,24, 0.00,60.00,Monday
7,21.640833333333334
652,17.995941389348745
1717,4884.2532337348279
1720,0.8799102400000003
1721,0.29327177960653258
1722,0.5866384603934676
1723,11.995907051428189
1724,12.481823540110087
1730,11.99203489736654
1952,9.173152052716138
1953,9.678766837003974
End of Data
 Number of Records Written=        1056
