Program Version,EnergyPlus, Version 9.5.0-de239b2e5f, YMD=2021.07.22 14:15
1,5,Environment Title[],Latitude[deg],Longitude[deg],Time Zone[],Elevation[m]
2,8,Day of Simulation[],Month[],Day of Month[],DST Indicator[1=yes 0=no],Hour[],StartMinute[],EndMinute[],DayType
3,5,Cumulative Day of Simulation[],Month[],Day of Month[],DST Indicator[1=yes 0=no],DayType  ! When Daily Report Variables Requested
4,2,Cumulative Days of Simulation[],Month[]  ! When Monthly Report Variables Requested
5,1,Cumulative Days of Simulation[] ! When Run Period Report Variables Requested
6,1,Calendar Year of Simulation[] ! When Annual Report Variables Requested
7,1,Environment,Site Outdoor Air Drybulb Temperature [C] !Hourly
652,1,PERIMETER_BOT_ZN_1,Zone Mean Air Temperature [C] !Hourly
1717,1,PERI1_TOP_LOTEMP,Zone Radiant HVAC Cooling Rate [W] !Hourly
1720,1,PERI1_TOP_LOTEMP,Zone Radiant HVAC Mass Flow Rate [kg/s] !Hourly
1721,1,PERI1_TOP_LOTEMP,Zone Radiant HVAC Injection Mass Flow Rate [kg/s] !Hourly
1722,1,PERI1_TOP_LOTEMP,Zone Radiant HVAC Recirculation Mass Flow Rate [kg/s] !Hourly
1723,1,PERI1_TOP_LOTEMP,Zone Radiant HVAC Inlet Temperature [C] !Hourly
1724,1,PERI1_TOP_LOTEMP,Zone Radiant HVAC Outlet Temperature [C] !Hourly
1730,1,PERI2_TOP_LOTEMP,Zone Radiant HVAC Outlet Temperature [C] !Hourly
1952,1,PERI1_TOP_LOTEMP_CHW_INLET,System Node Temperature [C] !Hourly
1953,1,PERI1_TOP_LOTEMP_CHW_OUTLET,System Node Temperature [C] !Hourly
End of Data Dictionary
1,ATLANTA-HARTSFIELD.JACKSON.INTL.AP_GA_USA ANN HTG 99.6% CONDNS DB,  33.63, -84.43,  -5.00, 308.00
2,1, 1,21, 0, 1, 0.00,60.00,WinterDesignDay
7,-6.300000000000007
652,16.010609115123445
1717,0.0
1720,0.15232947013333335
1721,0.02488194441315656
1722,0.12744752572017679
1723,30.079382597406047
1724,27.201924699105157
1730,40.8478521185969
1952,12.92878363827891
1953,12.92878363827891
2,1, 1,21, 0, 2, 0.00,60.00,WinterDesignDay
7,-6.300000000000007
652,16.01273822320849
1717,0.0
1720,0.1433689130666667
1721,0.023379979485560276
1722,0.1199889335811064
1723,30.069259792964968
1724,27.36613550872097
1730,40.847169716203179
1952,12.92878363827891
1953,12.92878363827891
2,1, 1,21, 0, 3, 0.00,60.00,WinterDesignDay
7,-6.300000000000007
652,16.009754289396605
1717,0.0
1720,0.1612900272
1721,0.026354789493765786
1722,0.13493523770623426
1723,30.0841053941916
1724,27.036498633292003
1730,40.84655177627316
1952,12.92878363827891
1953,12.92878363827891
2,1, 1,21, 0, 4, 0.00,60.00,WinterDesignDay
7,-6.300000000000007
652,16.012345712258907
1717,0.0
1720,0.1433689130666667
1721,0.023405166418221724
1722,0.11996374664844496
1723,30.060048497096419
1724,27.35309865009221
1730,40.84599047015952
1952,12.92878363827891
1953,12.92878363827891
2,1, 1,21, 0, 5, 0.00,60.00,WinterDesignDay
7,-6.300000000000007
652,16.010653707673993
1717,0.0
1720,0.15232947013333335
1721,0.024911031019644395
1722,0.12741843911368895
1723,30.089785192705006
1724,27.209362874453445
1730,40.84547994137283
1952,12.92878363827891
1953,12.92878363827891
2,1, 1,21, 0, 6, 0.00,60.00,WinterDesignDay
7,-6.300000000000007
652,16.010425968216894
1717,0.0
1720,0.1612900272
1721,0.026346745363186716
1722,0.13494328183681329
1723,30.07455333460962
1724,27.02775983294358
1730,40.84501466202039
1952,12.92878363827891
1953,12.92878363827891
2,1, 1,21, 0, 7, 0.00,60.00,WinterDesignDay
7,-6.300000000000007
652,16.073699118345567
1717,0.0
1720,0.026881671200000003
1721,0.004545817273392907
1722,0.022335853926607097
1723,30.083041682519825
1724,29.553151373821028
1730,40.85634532840337
1952,12.92878363827891
1953,12.92878363827891
2,1, 1,21, 0, 8, 0.00,60.00,WinterDesignDay
7,-6.300000000000007
652,16.028001835787124
1717,0.0
1720,0.053763342400000007
1721,0.00907130454787875
1722,0.04469203785212125
1723,30.01710263065029
1724,28.960210681353474
1730,40.86430005759646
1952,12.92878363827891
1953,12.92878363827891
2,1, 1,21, 0, 9, 0.00,60.00,WinterDesignDay
7,-6.300000000000007
652,16.02311659245585
1717,0.0
1720,0.07168445653333335
1721,0.012115558706423028
1722,0.05956889782691031
1723,30.041617859308077
1724,28.630172480891735
1730,40.86644867532896
1952,12.92878363827891
1953,12.92878363827891
2,1, 1,21, 0,10, 0.00,60.00,WinterDesignDay
7,-6.300000000000007
652,16.022960354199978
1717,0.0
1720,0.07168445653333335
1721,0.012104302486088608
1722,0.05958015404724473
1723,30.03801987972736
1724,28.628024646772464
1730,40.8676910695514
1952,12.92878363827891
1953,12.92878363827891
2,1, 1,21, 0,11, 0.00,60.00,WinterDesignDay
7,-6.300000000000007
652,16.0212300000227
1717,0.0
1720,0.07168445653333335
1721,0.012121674549151689
1722,0.059562781984181658
1723,30.054968290325996
1724,28.643013536804486
1730,40.868609028008517
1952,12.92878363827891
1953,12.92878363827891
2,1, 1,21, 0,12, 0.00,60.00,WinterDesignDay
7,-6.300000000000007
652,16.02219149250126
1717,0.0
1720,0.07168445653333335
1721,0.012086843099457595
1722,0.059597613433875738
1723,30.032485090810437
1724,28.62473692692684
1730,40.86937513499415
1952,12.92878363827891
1953,12.92878363827891
2,1, 1,21, 0,13, 0.00,60.00,WinterDesignDay
7,-6.300000000000007
652,16.02128655571646
1717,0.0
1720,0.08064501360000001
1721,0.013629165055218887
1722,0.06701584854478113
1723,30.044316784846197
1724,28.45667289380263
1730,40.870045507975579
1952,12.92878363827891
1953,12.92878363827891
2,1, 1,21, 0,14, 0.00,60.00,WinterDesignDay
7,-6.300000000000007
652,16.021937386698668
1717,0.0
1720,0.08064501360000001
1721,0.01359104003476255
1722,0.06705397356523747
1723,30.0397769170413
1724,28.4572676926426
1730,40.870641910055159
1952,12.92878363827891
1953,12.92878363827891
2,1, 1,21, 0,15, 0.00,60.00,WinterDesignDay
7,-6.300000000000007
652,16.02298533338868
1717,0.0
1720,0.07168445653333335
1721,0.012083284600161183
1722,0.05960117193317215
1723,30.035304999430914
1724,28.628125350336285
1730,40.87117544716125
1952,12.92878363827891
1953,12.92878363827891
2,1, 1,21, 0,16, 0.00,60.00,WinterDesignDay
7,-6.300000000000007
652,16.023022653318649
1717,0.0
1720,0.07168445653333335
1721,0.012080116858983737
1722,0.0596043396743496
1723,30.040541984301837
1724,28.633806429085689
1730,40.87165383278444
1952,12.92878363827891
1953,12.92878363827891
2,1, 1,21, 0,17, 0.00,60.00,WinterDesignDay
7,-6.300000000000007
652,16.02215085413572
1717,0.0
1720,0.07168445653333335
1721,0.012086321605640783
1722,0.05959813492769255
1723,30.036031851258586
1724,28.628579409157795
1730,40.87208308582655
1952,12.92878363827891
1953,12.92878363827891
2,1, 1,21, 0,18, 0.00,60.00,WinterDesignDay
7,-6.300000000000007
652,16.021691027472888
1717,0.0
1720,0.07168445653333335
1721,0.012080658611716196
1722,0.059603797921617147
1723,30.03866232770033
1724,28.631906658484448
1730,40.87246847481149
1952,12.92878363827891
1953,12.92878363827891
2,1, 1,21, 0,19, 0.00,60.00,WinterDesignDay
7,-6.300000000000007
652,16.000237940764867
1717,0.0
1720,0.2329744837333332
1721,0.038551936305908408
1722,0.19442254742742494
1723,30.153393698943096
1724,25.697487463732139
1730,40.86101671793986
1952,12.92878363827891
1953,12.92878363827891
2,1, 1,21, 0,20, 0.00,60.00,WinterDesignDay
7,-6.300000000000007
652,16.013380470832599
1717,0.0
1720,0.15232947013333335
1721,0.02474247565502461
1722,0.1275869944783087
1723,30.052387517954704
1724,27.19260944519484
1730,40.85297522097049
1952,12.92878363827891
1953,12.92878363827891
2,1, 1,21, 0,21, 0.00,60.00,WinterDesignDay
7,-6.300000000000007
652,16.01318963163228
1717,0.0
1720,0.1612900272
1721,0.02624468555306136
1722,0.13504534164693864
1723,30.05878713983577
1724,27.02577150271062
1730,40.850752014106259
1952,12.92878363827891
1953,12.92878363827891
2,1, 1,21, 0,22, 0.00,60.00,WinterDesignDay
7,-6.300000000000007
652,16.012820823247055
1717,0.0
1720,0.1433689130666667
1721,0.023357015894772728
1722,0.12001189717189395
1723,30.059429394532605
1724,27.359595970791366
1730,40.84943837555101
1952,12.92878363827891
1953,12.92878363827891
2,1, 1,21, 0,23, 0.00,60.00,WinterDesignDay
7,-6.300000000000007
652,16.010536285360084
1717,0.0
1720,0.1612900272
1721,0.026338032830031018
1722,0.134951994369969
1723,30.08456547797822
1724,27.0393746029954
1730,40.84844992584317
1952,12.92878363827891
1953,12.92878363827891
2,1, 1,21, 0,24, 0.00,60.00,WinterDesignDay
7,-6.300000000000007
652,16.010203303875249
1717,0.0
1720,0.1612900272
1721,0.026316486781921338
1722,0.13497354041807867
1723,30.076089548252374
1724,27.033276474608888
1730,40.84761443154918
1952,12.92878363827891
1953,12.92878363827891
1,ATLANTA-HARTSFIELD.JACKSON.INTL.AP_GA_USA ANN CLG .4% CONDNS DB=>MWB,  33.63, -84.43,  -5.00, 308.00
2,1, 7,21, 0, 1, 0.00,60.00,SummerDesignDay
7,26.32025
652,20.398511189422334
1717,9177.344530443512
1720,0.5467642243600003
1721,0.31116018314235979
1722,0.23560404121764035
1723,9.998990532572258
1724,14.003956115279778
1730,28.93837235000512
1952,6.8834496140372709
1953,10.935546075939872
2,1, 7,21, 0, 2, 0.00,60.00,SummerDesignDay
7,25.84683333333334
652,20.271829924467725
1717,8998.71573913882
1720,0.5467642243600003
1721,0.31434560408252357
1722,0.2324186202774765
1723,10.105275947334894
1724,14.032411180196899
1730,28.985522483313607
1952,7.119586882741276
1953,11.093854465807798
2,1, 7,21, 0, 3, 0.00,60.00,SummerDesignDay
7,25.515125
652,20.171588314539809
1717,8847.56124208363
1720,0.5467642243600003
1721,0.31586002591440839
1722,0.23090419844559166
1723,10.18907142105245
1724,14.050333906089838
1730,29.051342323539349
1952,7.284739011941207
1953,11.19313497806947
2,1, 7,21, 0, 4, 0.00,60.00,SummerDesignDay
7,25.230124999999995
652,20.086035174534574
1717,8711.805551902311
1720,0.5467642243600003
1721,0.3171236101771541
1722,0.2296406141828459
1723,10.260515559241327
1724,14.062609195669332
1730,29.118282946663649
1952,7.425962837837838
1953,11.2751909196069
2,1, 7,21, 0, 5, 0.00,60.00,SummerDesignDay
7,24.993416666666673
652,20.01112015691522
1717,8589.411921685922
1720,0.5467642243600003
1721,0.3179392177616621
1722,0.22882500659833786
1723,10.3231088653732
1724,14.071853458418225
1730,29.184530755935464
1952,7.544027675604874
1953,11.339907558821654
2,1, 7,21, 0, 6, 0.00,60.00,SummerDesignDay
7,24.996583333333335
652,19.956175526518515
1717,8498.809331040435
1720,0.5467642243600003
1721,0.3143819623994756
1722,0.23238226196052443
1723,10.369501140495109
1724,14.078752658061254
1730,29.31100131850327
1952,7.545573915632699
1953,11.30196134955894
2,1, 7,21, 0, 7, 0.00,60.00,SummerDesignDay
7,25.42804166666666
652,20.339234503285984
1717,9091.514973167448
1720,0.5467642243600003
1721,0.3281426959393713
1722,0.21862152842062874
1723,10.057482986139503
1724,14.025060063564882
1730,30.129702663046645
1952,7.335703317964299
1953,11.350412091467693
2,1, 7,21, 0, 8, 0.00,60.00,SummerDesignDay
7,26.575958333333334
652,20.5973148460363
1717,9431.78396632563
1720,0.5467642243600003
1721,0.3199543301800551
1722,0.22680989417994497
1723,9.84004328876615
1724,13.955828616184374
1730,30.180979812303347
1952,6.8409597992944299
1953,11.003873537958555
2,1, 7,21, 0, 9, 0.00,60.00,SummerDesignDay
7,28.287541666666664
652,20.97083192079666
1717,10020.567305748946
1720,0.5467642243600003
1721,0.33551700245245788
1722,0.2112472219075422
1723,9.529972184781848
1724,13.902233386542484
1730,30.180979812303347
1952,6.699999999999995
1953,11.11938473228542
2,1, 7,21, 0,10, 0.00,60.00,SummerDesignDay
7,29.995958333333328
652,21.428698757508959
1717,10764.68942302831
1720,0.5467642243600003
1721,0.3629288897167489
1722,0.18383533464325126
1723,9.150273638930673
1724,13.846619117503087
1730,30.180979812303347
1952,6.699999999999993
1953,11.443463033765467
2,1, 7,21, 0,11, 0.00,60.00,SummerDesignDay
7,31.514374999999995
652,22.076962850579613
1717,11854.501129476694
1720,0.5467642243600003
1721,0.40280846699162045
1722,0.14395575736837963
1723,8.612553931812779
1724,13.783422957860033
1730,30.180979812303347
1952,6.699999999999993
1953,11.917978121760874
2,1, 7,21, 0,12, 0.00,60.00,SummerDesignDay
7,32.697916666666667
652,22.78755643466412
1717,13054.6918763044
1720,0.5467642243600003
1721,0.4479638600194102
1722,0.09880036434058985
1723,8.019564104907252
1724,13.712825029188134
1730,30.180979812303347
1952,6.701327052624851
1953,12.445939333370998
2,1, 7,21, 0,13, 0.00,60.00,SummerDesignDay
7,33.55133333333333
652,23.367106292914
1717,13569.51957649489
1720,0.5467642243600003
1721,0.5338927789259653
1722,0.012871445434034946
1723,7.778568530191875
1724,13.695880714470901
1730,30.180979812303347
1952,7.542819211717267
1953,13.538478164749679
2,1, 7,21, 0,14, 0.00,60.00,SummerDesignDay
7,34.16645833333333
652,23.765152207765277
1717,13496.6987382707
1720,0.5467642243600003
1721,0.5467642243600003
1722,0.0
1723,7.948760416913786
1724,13.83465283534891
1730,30.180979812303347
1952,7.867687534662606
1953,13.83465283534891
2,1, 7,21, 0,15, 0.00,60.00,SummerDesignDay
7,34.40000000000004
652,23.901047049360647
1717,13492.862718825027
1720,0.5467642243600003
1721,0.5467642243600003
1722,0.0
1723,8.090535531621957
1724,13.97503355591845
1730,30.180979812303347
1952,8.009480171501318
1953,13.97503355591845
2,1, 7,21, 0,16, 0.00,60.00,SummerDesignDay
7,34.110250000000018
652,23.731660228901345
1717,13483.85881461246
1720,0.5467642243600003
1721,0.5467642243600003
1722,0.0
1723,8.144169393901328
1724,14.024845945700731
1730,30.180979812303347
1952,8.063146235062824
1953,14.024845945700731
2,1, 7,21, 0,17, 0.00,60.00,SummerDesignDay
7,33.44366666666667
652,23.337563635458026
1717,13474.880681652421
1720,0.5467642243600003
1721,0.5467642243600003
1722,0.0
1723,8.073261875262235
1724,13.949883723984078
1730,30.180979812303347
1952,7.992266206831024
1953,13.949883723984078
2,1, 7,21, 0,18, 0.00,60.00,SummerDesignDay
7,32.58708333333333
652,22.860318077442117
1717,13268.089266765526
1720,0.5467642243600003
1721,0.5108923817779221
1722,0.035871842582078147
1723,8.001752969981956
1724,13.78804940962397
1730,30.180979812303347
1952,7.479270804134466
1953,13.339741151793309
2,1, 7,21, 0,19, 0.00,60.00,SummerDesignDay
7,31.395624999999997
652,22.362199601457346
1717,12278.957221910927
1720,0.5467642243600003
1721,0.4211791833777027
1722,0.12558504098229726
1723,8.35793862547677
1724,13.713502121961817
1730,30.180979812303347
1952,6.700000003232974
1953,12.10266859073149
2,1, 7,21, 0,20, 0.00,60.00,SummerDesignDay
7,30.16379166666667
652,21.949275405933727
1717,11523.043999565642
1720,0.5467642243600003
1721,0.39458015628884987
1722,0.1521840680711502
1723,8.704084457867877
1724,13.730534002471855
1730,30.180979812303347
1952,6.699999999999993
1953,11.773560079976543
2,1, 7,21, 0,21, 0.00,60.00,SummerDesignDay
7,29.215374999999999
652,21.60840095007618
1717,10963.672947609408
1720,0.5467642243600003
1721,0.373451629633186
1722,0.17331259472681397
1723,8.988820158778989
1724,13.771722527324766
1730,30.180979812303347
1952,6.699999999999993
1953,11.53001738334992
2,1, 7,21, 0,22, 0.00,60.00,SummerDesignDay
7,28.360375
652,21.348676507109479
1717,10556.092624192399
1720,0.5467642243600003
1721,0.357702400069061
1722,0.18906182429093916
1723,9.206314062519452
1724,13.81174461326732
1730,30.180979812303347
1952,6.699999999999993
1953,11.352548987688353
2,1, 7,21, 0,23, 0.00,60.00,SummerDesignDay
7,27.60195833333334
652,20.81402507653049
1717,9717.246531470775
1720,0.5467642243600003
1721,0.326190887781209
1722,0.22057333657879106
1723,9.646909347592578
1724,13.886987677335013
1730,28.783268223093775
1952,6.699999999999993
1953,10.987203700836878
2,1, 7,21, 0,24, 0.00,60.00,SummerDesignDay
7,26.936958333333334
652,20.572373542620839
1717,9410.65541600738
1720,0.5467642243600003
1721,0.3129192335682503
1722,0.23384499079174987
1723,9.853999250887743
1724,13.960585065544184
1730,28.631819178144498
1952,6.7027041521533159
1953,10.85641859775423
1,RUNPERIOD 1,  33.63, -84.43,  -5.00, 308.00
2,1, 7, 1, 0, 1, 0.00,60.00,Sunday
7,21.118333333333337
652,19.347021676746786
1717,12890.709604650567
1720,0.5467642243600003
1721,0.51248248254828
1722,0.034281741811720198
1723,10.096860153587935
1724,15.722496735917689
1730,11.995427131332992
1952,9.649472351657084
1953,15.338000907476479
2,1, 7, 1, 0, 2, 0.00,60.00,Sunday
7,22.098333333333334
652,19.156825643785898
1717,2750.402063573413
1720,0.5467642243600003
1721,0.09873097251113135
1722,0.4480332518488688
1723,14.669558469999995
1724,15.871433977687577
1730,11.995427131332992
1952,8.978645698011276
1953,10.227715234728059
2,1, 7, 1, 0, 3, 0.00,60.00,Sunday
7,21.949166666666675
652,19.243268206777655
1717,3800.5264185512498
1720,0.5467642243600003
1721,0.13076567591251057
1722,0.41599854844748959
1723,14.532840139999989
1724,16.193535729261599
1730,11.995427131332992
1952,9.053182680500783
1953,10.761070448920709
2,1, 7, 1, 0, 4, 0.00,60.00,Sunday
7,21.79833333333333
652,19.257273757691473
1717,4117.571558634375
1720,0.5467642243600003
1721,0.14084293348548947
1722,0.4059212908745107
1723,14.495927769999988
1724,16.295141828326395
1730,11.995427131332992
1952,9.12711011229201
1953,10.973515850357835
2,1, 7, 1, 0, 5, 0.00,60.00,Sunday
7,21.700000000000025
652,18.924826931529826
1717,11704.121754079491
1720,0.5467642243600003
1721,0.47491274870331587
1722,0.07185147565668419
1723,10.0
1724,15.107649413645225
1730,11.995427131332992
1952,9.17746145709765
1953,14.332241800193563
2,1, 7, 1, 0, 6, 0.00,60.00,Sunday
7,21.954166666666663
652,18.438845152450424
1717,9407.211895814778
1720,0.5467642243600003
1721,0.449363559852517
1722,0.09740066450748314
1723,10.0
1724,14.105283705455929
1730,13.057763611951577
1952,9.055628117218623
1953,13.20804275212523
2,1, 7, 1, 0, 7, 0.00,60.00,Sunday
7,22.200000000000025
652,18.67001545765134
1717,1416.3477806853637
1720,0.5103132760693336
1721,0.05961209625617938
1722,0.450701179813154
1723,14.24500223999999
1724,14.863845043135586
1730,14.193666021292266
1952,8.929929984477463
1953,9.592815186949379
2,1, 7, 1, 0, 8, 0.00,60.00,Sunday
7,23.31833333333333
652,19.380636026836105
1717,0.0
1720,0.0
1721,0.0
1722,0.0
1723,14.24500223999999
1724,14.24500223999999
1730,14.299473160126274
1952,8.92972972972973
1953,8.92972972972973
2,1, 7, 1, 0, 9, 0.00,60.00,Sunday
7,25.823333333333335
652,20.109500148175198
1717,4898.785695867666
1720,0.5467642243600003
1721,0.12846997228655766
1722,0.41829425207344236
1723,14.385565779999986
1724,16.52607143613057
1730,14.963111233974593
1952,7.195770765185799
1953,9.383466607867522
2,1, 7, 1, 0,10, 0.00,60.00,Sunday
7,27.759166666666667
652,20.751952312880698
1717,5988.174090611158
1720,0.5467642243600003
1721,0.14851797242577864
1722,0.39824625193422155
1723,13.88875951
1724,16.504896646650577
1730,14.451428162828544
1952,6.700000005584965
1953,9.363320608594903
2,1, 7, 1, 0,11, 0.00,60.00,Sunday
7,29.164166666666668
652,21.296194226559185
1717,8913.63217566752
1720,0.5467642243600003
1721,0.22721068119984559
1722,0.3195535431601544
1723,12.286297780000009
1724,16.17873264235122
1730,13.407948401023623
1952,6.699999999999993
1953,10.639596665401787
2,1, 7, 1, 0,12, 0.00,60.00,Sunday
7,30.0
652,22.068551468064184
1717,6414.967312473036
1720,0.5467642243600003
1721,0.16060127129902716
1722,0.3861629530609729
1723,13.595195480000003
1724,16.397555907763093
1730,13.505006186756946
1952,6.699999999999993
1953,9.54953992400308
2,1, 7, 1, 0,13, 0.00,60.00,Sunday
7,30.86416666666667
652,22.59617563020363
1717,10354.83107140875
1720,0.5467642243600003
1721,0.2620089445615611
1722,0.2847552797984389
1723,11.71079975999999
1724,16.23183672800911
1730,13.297951818594392
1952,6.699999999999993
1953,11.268190995841893
2,1, 7, 1, 0,14, 0.00,60.00,Sunday
7,29.717500000000006
652,22.345839234473805
1717,11678.650558274556
1720,0.5467642243600003
1721,0.3130003008193242
1722,0.23376392354067583
1723,10.587003119999999
1724,15.68439367615522
1730,13.353702302146529
1952,6.699999999999993
1953,11.844529408141396
2,1, 7, 1, 0,15, 0.00,60.00,Sunday
7,28.613333333333335
652,21.967448620919606
1717,11883.84014024917
1720,0.5467642243600003
1721,0.3416071986703072
1722,0.2051570256896928
1723,9.888261230000009
1724,15.074145727582615
1730,13.38177297452703
1952,6.699999999999993
1953,11.933013667878507
2,1, 7, 1, 0,16, 0.00,60.00,Sunday
7,28.0275
652,21.85835940061677
1717,3636.0411596243159
1720,0.5467642243600003
1721,0.09612021500513414
1722,0.4506440093548659
1723,14.355624359999986
1724,15.944364995542312
1730,13.54753335004362
1952,6.699999999999993
1953,8.335930417259825
2,1, 7, 1, 0,17, 0.00,60.00,Sunday
7,25.276666666666665
652,21.450558231702979
1717,9482.634351605677
1720,0.5467642243600003
1721,0.26885380646319936
1722,0.2779104178968008
1723,11.774173949999986
1724,15.914475102397227
1730,14.035673151544343
1952,7.3823564174495959
1953,11.569812454014967
2,1, 7, 1, 0,18, 0.00,60.00,Sunday
7,23.594999999999997
652,20.943898781147639
1717,5494.140365623394
1720,0.5467642243600003
1721,0.1699280248253074
1722,0.3768361995346926
1723,13.70700918
1724,16.1071858676853
1730,14.426332594297867
1952,8.233382334380554
1953,10.680740030380085
2,1, 7, 1, 0,19, 0.00,60.00,Sunday
7,23.604999999999995
652,20.879667780817934
1717,0.0
1720,0.0
1721,0.0
1722,0.0
1723,13.70700918
1724,13.70700918
1730,13.82140781813658
1952,8.381801016317308
1953,8.381801016317308
2,1, 7, 1, 0,20, 0.00,60.00,Sunday
7,21.917500000000005
652,20.785491966662375
1717,7133.390097848961
1720,0.5467642243600003
1721,0.20335459266557397
1722,0.3434096316944261
1723,14.46155855999999
1724,17.578533964837189
1730,12.326754466158464
1952,9.042719291221962
1953,12.206885910769808
2,1, 7, 1, 0,21, 0.00,60.00,Sunday
7,20.304999999999994
652,20.360858535077747
1717,5611.321623703701
1720,0.5467642243600003
1721,0.1804235926331129
1722,0.36634063172688716
1723,14.996604459999988
1724,17.44887954875745
1730,12.51818443751617
1952,9.873288190102727
1953,12.372761733581969
2,1, 7, 1, 0,22, 0.00,60.00,Sunday
7,20.294999999999996
652,20.107556715919754
1717,6709.856727411502
1720,0.5467642243600003
1721,0.22004664422754673
1722,0.3267175801324534
1723,14.339022470000005
1724,17.27082957537734
1730,11.993176177523234
1952,9.868789815972605
1953,12.847786478481213
2,1, 7, 1, 0,23, 0.00,60.00,Sunday
7,20.0
652,19.914802370129015
1717,5545.273407692187
1720,0.5467642243600003
1721,0.1887318855501525
1722,0.3580323388098476
1723,14.753347640000009
1724,17.17658913365972
1730,11.993176177523234
1952,10.01977175868037
1953,12.490208415152477
2,1, 7, 1, 0,24, 0.00,60.00,Sunday
7,20.0
652,19.746935353476489
1717,6928.960128095073
1720,0.5467642243600003
1721,0.24384850047586413
1722,0.30291572388413598
1723,13.884642519999977
1724,16.911790402308549
1730,11.993176177523234
1952,10.019819819819825
1953,13.094151112805493
2,2, 7, 2, 0, 1, 0.00,60.00,Monday
7,20.0
652,19.42028019516913
1717,11654.85938139675
1720,0.5467642243600003
1721,0.47681955086339447
1722,0.0699446734966055
1723,10.809840414614757
1724,15.897155940540527
1730,11.993176177523234
1952,10.019819819819825
1953,15.154277206525763
2,2, 7, 2, 0, 2, 0.00,60.00,Monday
7,20.0
652,18.96749739877311
1717,8822.625703785443
1720,0.5467642243600003
1721,0.4241073520955074
1722,0.12265687226449258
1723,11.188344887448994
1724,15.039819741851345
1730,11.993176177523234
1952,10.019819819819825
1953,13.918441645771967
2,2, 7, 2, 0, 3, 0.00,60.00,Monday
7,19.440833333333335
652,18.64309333289206
1717,7235.230392811957
1720,0.5467642243600003
1721,0.4049222809399281
1722,0.14184194342007207
1723,11.460270124018157
1724,14.61902458955975
1730,11.993176177523234
1952,10.287888412389302
1953,13.49379352183164
2,2, 7, 2, 0, 4, 0.00,60.00,Monday
7,19.154166666666666
652,18.41771564634893
1717,6418.529333692271
1720,0.5467642243600003
1721,0.38879235745592485
1722,0.15797186690407526
1723,11.649408707501552
1724,14.451761429799995
1730,11.993176177523234
1952,10.442927392517003
1953,13.29243331336249
2,2, 7, 2, 0, 5, 0.00,60.00,Monday
7,19.399999999999996
652,18.274183451083006
1717,6000.923267825649
1720,0.5467642243600003
1721,0.3580516557617559
1722,0.18871256859824427
1723,11.769997845032286
1724,14.390113332136595
1730,11.993176177523234
1952,10.317157168066668
1953,12.98442748269836
2,2, 7, 2, 0, 6, 0.00,60.00,Monday
7,19.399999999999996
652,18.20079285080196
1717,5812.077546277885
1720,0.5467642243600003
1721,0.3487351786735876
1722,0.19802904568641264
1723,11.832070297896168
1724,14.369777537903844
1730,11.993176177523234
1952,10.31711711711712
1953,12.901980023142987
2,2, 7, 2, 0, 7, 0.00,60.00,Monday
7,19.705
652,18.410586036586559
1717,6115.805717327507
1720,0.5467642243600003
1721,0.3569336259452598
1722,0.1898305984147404
1723,11.662995334075737
1724,14.333187867530832
1730,13.218606464571656
1952,10.17089788480649
1953,12.888243800352355
2,2, 7, 2, 0, 8, 0.00,60.00,Monday
7,21.118333333333337
652,19.475224175095329
1717,7739.114373217685
1720,0.5467642243600003
1721,0.39948353334304528
1722,0.14728069101695488
1723,10.790647170103263
1724,14.1687228381548
1730,11.398329123499817
1952,9.48373069582031
1953,12.90894796578888
2,2, 7, 2, 0, 9, 0.00,60.00,Monday
7,23.62333333333333
652,20.088333586165076
1717,8556.684588283146
1720,0.5467642243600003
1721,0.36041226306720999
1722,0.18635196129279
1723,10.265142780892012
1724,13.999538360689077
1730,11.345146194094012
1952,8.247549536458142
1953,12.029079624104267
2,2, 7, 2, 0,10, 0.00,60.00,Monday
7,25.55916666666667
652,20.64935380711844
1717,9387.31247611071
1720,0.5467642243600003
1721,0.3421271866467041
1722,0.2046370377132959
1723,9.799516918193096
1724,13.895838260756266
1730,11.345146194094012
1952,7.274498035090321
1953,11.41794715023801
2,2, 7, 2, 0,11, 0.00,60.00,Monday
7,26.65916666666666
652,21.217051588102746
1717,10265.292109319747
1720,0.5467642243600003
1721,0.35232598774630349
1722,0.1944382366136966
1723,9.3275014927296
1724,13.806237163558763
1730,11.345146194094012
1952,6.783661685662574
1953,11.309517700582268
2,2, 7, 2, 0,12, 0.00,60.00,Monday
7,28.06416666666667
652,21.850253369232754
1717,11284.467967735982
1720,0.5467642243600003
1721,0.38694549301231687
1722,0.1598187313476833
1723,8.800455288251812
1724,13.722989191957736
1730,11.345146194094012
1952,6.699999999999993
1953,11.669645955143018
2,2, 7, 2, 0,13, 0.00,60.00,Monday
7,29.459166666666666
652,23.892932564235826
1717,13488.18094161344
1720,0.5467642243600003
1721,0.5336028208157351
1722,0.013161403544265179
1723,7.6667807245131229
1724,13.548395511379385
1730,11.345146194094012
1952,7.42404912393838
1953,13.382223587794645
2,2, 7, 2, 0,14, 0.00,60.00,Monday
7,29.440833333333328
652,23.03846320504204
1717,13012.720631585535
1720,0.5467642243600003
1721,0.4774199167555128
1722,0.0693443076044873
1723,7.841744353904681
1724,13.516368966192998
1730,11.345146194094012
1952,6.924700849074218
1953,12.657904573715238
2,2, 7, 2, 0,15, 0.00,60.00,Monday
7,29.76416666666667
652,22.87685131209632
1717,12775.848689376311
1720,0.5467642243600003
1721,0.45127882578778835
1722,0.09548539857221179
1723,7.9359350945953699
1724,13.507441901956092
1730,11.345146194094012
1952,6.699999999999993
1953,12.318605262470987
2,2, 7, 2, 0,16, 0.00,60.00,Monday
7,30.854166666666669
652,22.842129310672378
1717,12672.615522101725
1720,0.5467642243600003
1721,0.448832410075718
1722,0.09793181428428195
1723,7.9632020678903319
1724,13.489739110102854
1730,11.345146194094012
1952,6.699999999999993
1953,12.273635926014875
2,2, 7, 2, 0,17, 0.00,60.00,Monday
7,30.84583333333334
652,22.658956984691977
1717,12323.58524310923
1720,0.5467642243600003
1721,0.43664990272477607
1722,0.1101143216352241
1723,8.114377719638878
1724,13.488973124828048
1730,11.345146194094012
1952,6.699999999999993
1953,12.12169666602988
2,2, 7, 2, 0,18, 0.00,60.00,Monday
7,30.59999999999997
652,23.978960694123189
1717,13492.210412957478
1720,0.5467642243600003
1721,0.5384942661108437
1722,0.008269958249156584
1723,7.486394015332743
1724,13.36941478283445
1730,11.345146194094012
1952,7.306570847792665
1953,13.26729126098753
2,2, 7, 2, 0,19, 0.00,60.00,Monday
7,29.430833333333337
652,21.58855522711598
1717,10270.095398152915
1720,0.5467642243600003
1721,0.37143513461096758
1722,0.17532908974903234
1723,8.978549729224053
1724,13.458781524753288
1730,30.319143443174175
1952,6.755400052031546
1953,11.28621519341409
2,2, 7, 2, 0,20, 0.00,60.00,Monday
7,26.927500000000003
652,20.123931130171444
1717,8127.177051361332
1720,0.5467642243600003
1721,0.2826499657091962
1722,0.26411425865080376
1723,10.212959467468098
1724,13.75983447285092
1730,32.076153721763187
1952,6.806747806659074
1953,10.400756520242633
2,2, 7, 2, 0,21, 0.00,60.00,Monday
7,24.430833333333334
652,19.427328813005788
1717,7293.419689739038
1720,0.5467642243600003
1721,0.28604439821754
1722,0.26071982614246005
1723,10.803113611673912
1724,13.986672936932087
1730,31.970930667570245
1952,7.8053358271082369
1953,11.03603692228504
2,2, 7, 2, 0,22, 0.00,60.00,Monday
7,23.045833333333339
652,19.0317904709827
1717,6846.977218076496
1720,0.5467642243600003
1721,0.29541017542063016
1722,0.25135404893936999
1723,11.136786750184836
1724,14.125762909811492
1730,21.27721642858737
1952,8.506349810575625
1953,11.542472245441598
2,2, 7, 2, 0,23, 0.00,60.00,Monday
7,22.494999999999999
652,18.833534331124054
1717,6643.789697733232
1720,0.5467642243600003
1721,0.2971111425811514
1722,0.24965308177884855
1723,11.302731398682056
1724,14.203146098089313
1730,12.494860808261509
1952,8.778611613793512
1953,11.72617482944445
2,2, 7, 2, 0,24, 0.00,60.00,Monday
7,21.640833333333334
652,18.646777140732107
1717,6389.429142682072
1720,0.5467642243600003
1721,0.3072658251126571
1722,0.239498399247343
1723,11.458381565227333
1724,14.247876803351897
1730,11.990087513835656
1952,9.197750261159757
1953,12.034396117662697
End of Data
 Number of Records Written=        1056
