Program Version,EnergyPlus, Version 9.5.0-de239b2e5f, YMD=2021.07.23 00:51
1,5,Environment Title[],Latitude[deg],Longitude[deg],Time Zone[],Elevation[m]
2,8,Day of Simulation[],Month[],Day of Month[],DST Indicator[1=yes 0=no],Hour[],StartMinute[],EndMinute[],DayType
3,5,Cumulative Day of Simulation[],Month[],Day of Month[],DST Indicator[1=yes 0=no],DayType  ! When Daily Report Variables Requested
4,2,Cumulative Days of Simulation[],Month[]  ! When Monthly Report Variables Requested
5,1,Cumulative Days of Simulation[] ! When Run Period Report Variables Requested
6,1,Calendar Year of Simulation[] ! When Annual Report Variables Requested
7,1,Environment,Site Outdoor Air Drybulb Temperature [C] !Hourly
652,1,PERIMETER_BOT_ZN_1,Zone Mean Air Temperature [C] !Hourly
1717,1,PERI1_TOP_LOTEMP,Zone Radiant HVAC Cooling Rate [W] !Hourly
1720,1,PERI1_TOP_LOTEMP,Zone Radiant HVAC Mass Flow Rate [kg/s] !Hourly
1721,1,PERI1_TOP_LOTEMP,Zone Radiant HVAC Injection Mass Flow Rate [kg/s] !Hourly
1722,1,PERI1_TOP_LOTEMP,Zone Radiant HVAC Recirculation Mass Flow Rate [kg/s] !Hourly
1723,1,PERI1_TOP_LOTEMP,Zone Radiant HVAC Inlet Temperature [C] !Hourly
1724,1,PERI1_TOP_LOTEMP,Zone Radiant HVAC Outlet Temperature [C] !Hourly
1730,1,PERI2_TOP_LOTEMP,Zone Radiant HVAC Outlet Temperature [C] !Hourly
1952,1,PERI1_TOP_LOTEMP_CHW_INLET,System Node Temperature [C] !Hourly
1953,1,PERI1_TOP_LOTEMP_CHW_OUTLET,System Node Temperature [C] !Hourly
End of Data Dictionary
1,ATLANTA-HARTSFIELD.JACKSON.INTL.AP_GA_USA ANN HTG 99.6% CONDNS DB,  33.63, -84.43,  -5.00, 308.00
2,1, 1,21, 0, 1, 0.00,60.00,WinterDesignDay
7,-6.300000000000007
652,16.010609115123445
1717,0.0
1720,0.15232947013333335
1721,0.02488194441315656
1722,0.12744752572017679
1723,30.079382597406047
1724,27.201924699105157
1730,40.8478521185969
1952,12.92878363827891
1953,12.92878363827891
2,1, 1,21, 0, 2, 0.00,60.00,WinterDesignDay
7,-6.300000000000007
652,16.01273822320849
1717,0.0
1720,0.1433689130666667
1721,0.023379979485560276
1722,0.1199889335811064
1723,30.069259792964968
1724,27.36613550872097
1730,40.847169716203179
1952,12.92878363827891
1953,12.92878363827891
2,1, 1,21, 0, 3, 0.00,60.00,WinterDesignDay
7,-6.300000000000007
652,16.009754289396605
1717,0.0
1720,0.1612900272
1721,0.026354789493765786
1722,0.13493523770623426
1723,30.0841053941916
1724,27.036498633292003
1730,40.84655177627316
1952,12.92878363827891
1953,12.92878363827891
2,1, 1,21, 0, 4, 0.00,60.00,WinterDesignDay
7,-6.300000000000007
652,16.012345712258907
1717,0.0
1720,0.1433689130666667
1721,0.023405166418221724
1722,0.11996374664844496
1723,30.060048497096419
1724,27.35309865009221
1730,40.84599047015952
1952,12.92878363827891
1953,12.92878363827891
2,1, 1,21, 0, 5, 0.00,60.00,WinterDesignDay
7,-6.300000000000007
652,16.010653707673993
1717,0.0
1720,0.15232947013333335
1721,0.024911031019644395
1722,0.12741843911368895
1723,30.089785192705006
1724,27.209362874453445
1730,40.84547994137283
1952,12.92878363827891
1953,12.92878363827891
2,1, 1,21, 0, 6, 0.00,60.00,WinterDesignDay
7,-6.300000000000007
652,16.010425968216894
1717,0.0
1720,0.1612900272
1721,0.026346745363186716
1722,0.13494328183681329
1723,30.07455333460962
1724,27.02775983294358
1730,40.84501466202039
1952,12.92878363827891
1953,12.92878363827891
2,1, 1,21, 0, 7, 0.00,60.00,WinterDesignDay
7,-6.300000000000007
652,16.073699118345567
1717,0.0
1720,0.026881671200000003
1721,0.004545817273392907
1722,0.022335853926607097
1723,30.083041682519825
1724,29.553151373821028
1730,40.85634532840337
1952,12.92878363827891
1953,12.92878363827891
2,1, 1,21, 0, 8, 0.00,60.00,WinterDesignDay
7,-6.300000000000007
652,16.028001835787124
1717,0.0
1720,0.053763342400000007
1721,0.00907130454787875
1722,0.04469203785212125
1723,30.01710263065029
1724,28.960210681353474
1730,40.86430005759646
1952,12.92878363827891
1953,12.92878363827891
2,1, 1,21, 0, 9, 0.00,60.00,WinterDesignDay
7,-6.300000000000007
652,16.02311659245585
1717,0.0
1720,0.07168445653333335
1721,0.012115558706423028
1722,0.05956889782691031
1723,30.041617859308077
1724,28.630172480891735
1730,40.86644867532896
1952,12.92878363827891
1953,12.92878363827891
2,1, 1,21, 0,10, 0.00,60.00,WinterDesignDay
7,-6.300000000000007
652,16.022960354199978
1717,0.0
1720,0.07168445653333335
1721,0.012104302486088608
1722,0.05958015404724473
1723,30.03801987972736
1724,28.628024646772464
1730,40.8676910695514
1952,12.92878363827891
1953,12.92878363827891
2,1, 1,21, 0,11, 0.00,60.00,WinterDesignDay
7,-6.300000000000007
652,16.0212300000227
1717,0.0
1720,0.07168445653333335
1721,0.012121674549151689
1722,0.059562781984181658
1723,30.054968290325996
1724,28.643013536804486
1730,40.868609028008517
1952,12.92878363827891
1953,12.92878363827891
2,1, 1,21, 0,12, 0.00,60.00,WinterDesignDay
7,-6.300000000000007
652,16.02219149250126
1717,0.0
1720,0.07168445653333335
1721,0.012086843099457595
1722,0.059597613433875738
1723,30.032485090810437
1724,28.62473692692684
1730,40.86937513499415
1952,12.92878363827891
1953,12.92878363827891
2,1, 1,21, 0,13, 0.00,60.00,WinterDesignDay
7,-6.300000000000007
652,16.02128655571646
1717,0.0
1720,0.08064501360000001
1721,0.013629165055218887
1722,0.06701584854478113
1723,30.044316784846197
1724,28.45667289380263
1730,40.870045507975579
1952,12.92878363827891
1953,12.92878363827891
2,1, 1,21, 0,14, 0.00,60.00,WinterDesignDay
7,-6.300000000000007
652,16.021937386698668
1717,0.0
1720,0.08064501360000001
1721,0.01359104003476255
1722,0.06705397356523747
1723,30.0397769170413
1724,28.4572676926426
1730,40.870641910055159
1952,12.92878363827891
1953,12.92878363827891
2,1, 1,21, 0,15, 0.00,60.00,WinterDesignDay
7,-6.300000000000007
652,16.02298533338868
1717,0.0
1720,0.07168445653333335
1721,0.012083284600161183
1722,0.05960117193317215
1723,30.035304999430914
1724,28.628125350336285
1730,40.87117544716125
1952,12.92878363827891
1953,12.92878363827891
2,1, 1,21, 0,16, 0.00,60.00,WinterDesignDay
7,-6.300000000000007
652,16.023022653318649
1717,0.0
1720,0.07168445653333335
1721,0.012080116858983737
1722,0.0596043396743496
1723,30.040541984301837
1724,28.633806429085689
1730,40.87165383278444
1952,12.92878363827891
1953,12.92878363827891
2,1, 1,21, 0,17, 0.00,60.00,WinterDesignDay
7,-6.300000000000007
652,16.02215085413572
1717,0.0
1720,0.07168445653333335
1721,0.012086321605640783
1722,0.05959813492769255
1723,30.036031851258586
1724,28.628579409157795
1730,40.87208308582655
1952,12.92878363827891
1953,12.92878363827891
2,1, 1,21, 0,18, 0.00,60.00,WinterDesignDay
7,-6.300000000000007
652,16.021691027472888
1717,0.0
1720,0.07168445653333335
1721,0.012080658611716196
1722,0.059603797921617147
1723,30.03866232770033
1724,28.631906658484448
1730,40.87246847481149
1952,12.92878363827891
1953,12.92878363827891
2,1, 1,21, 0,19, 0.00,60.00,WinterDesignDay
7,-6.300000000000007
652,16.000237940764867
1717,0.0
1720,0.2329744837333332
1721,0.038551936305908408
1722,0.19442254742742494
1723,30.153393698943096
1724,25.697487463732139
1730,40.86101671793986
1952,12.92878363827891
1953,12.92878363827891
2,1, 1,21, 0,20, 0.00,60.00,WinterDesignDay
7,-6.300000000000007
652,16.013380470832599
1717,0.0
1720,0.15232947013333335
1721,0.02474247565502461
1722,0.1275869944783087
1723,30.052387517954704
1724,27.19260944519484
1730,40.85297522097049
1952,12.92878363827891
1953,12.92878363827891
2,1, 1,21, 0,21, 0.00,60.00,WinterDesignDay
7,-6.300000000000007
652,16.01318963163228
1717,0.0
1720,0.1612900272
1721,0.02624468555306136
1722,0.13504534164693864
1723,30.05878713983577
1724,27.02577150271062
1730,40.850752014106259
1952,12.92878363827891
1953,12.92878363827891
2,1, 1,21, 0,22, 0.00,60.00,WinterDesignDay
7,-6.300000000000007
652,16.012820823247055
1717,0.0
1720,0.1433689130666667
1721,0.023357015894772728
1722,0.12001189717189395
1723,30.059429394532605
1724,27.359595970791366
1730,40.84943837555101
1952,12.92878363827891
1953,12.92878363827891
2,1, 1,21, 0,23, 0.00,60.00,WinterDesignDay
7,-6.300000000000007
652,16.010536285360084
1717,0.0
1720,0.1612900272
1721,0.026338032830031018
1722,0.134951994369969
1723,30.08456547797822
1724,27.0393746029954
1730,40.84844992584317
1952,12.92878363827891
1953,12.92878363827891
2,1, 1,21, 0,24, 0.00,60.00,WinterDesignDay
7,-6.300000000000007
652,16.010203303875249
1717,0.0
1720,0.1612900272
1721,0.026316486781921338
1722,0.13497354041807867
1723,30.076089548252374
1724,27.033276474608888
1730,40.84761443154918
1952,12.92878363827891
1953,12.92878363827891
1,ATLANTA-HARTSFIELD.JACKSON.INTL.AP_GA_USA ANN CLG .4% CONDNS DB=>MWB,  33.63, -84.43,  -5.00, 308.00
2,1, 7,21, 0, 1, 0.00,60.00,SummerDesignDay
7,26.32025
652,20.39851118907746
1717,9177.344529798776
1720,0.5467642243600003
1721,0.31116018312056956
1722,0.23560404123943055
1723,9.998990532857232
1724,14.003956115283574
1730,28.938372376390054
1952,6.88344961403727
1953,10.935546075658701
2,1, 7,21, 0, 2, 0.00,60.00,SummerDesignDay
7,25.84683333333334
652,20.271829923819934
1717,8998.715737960263
1720,0.5467642243600003
1721,0.3143456040407687
1722,0.23241862031923109
1723,10.105275947872299
1724,14.032411180220269
1730,28.985522533090653
1952,7.119586882741276
1953,11.093854465293762
2,1, 7,21, 0, 3, 0.00,60.00,SummerDesignDay
7,25.515125
652,20.1715883140915
1717,8847.56124133509
1720,0.5467642243600003
1721,0.3158600258855867
1722,0.23090419847441344
1723,10.189071421431404
1724,14.050333906141509
1730,29.0513423279333
1952,7.284739011941207
1953,11.19313497774218
2,1, 7,21, 0, 4, 0.00,60.00,SummerDesignDay
7,25.230124999999995
652,20.086035174454968
1717,8711.805551873713
1720,0.5467642243600003
1721,0.31712361017335669
1722,0.22964061418664337
1723,10.260515559312266
1724,14.062609195727422
1730,29.118282951245729
1952,7.425962837837838
1953,11.27519091959404
2,1, 7,21, 0, 5, 0.00,60.00,SummerDesignDay
7,24.993416666666673
652,20.011120157117344
1717,8589.411922190131
1720,0.5467642243600003
1721,0.3179392177774746
1722,0.22882500658252556
1723,10.323108865207987
1724,14.071853458473994
1730,29.18453075917811
1952,7.544027675604871
1953,11.339907559042656
2,1, 7,21, 0, 6, 0.00,60.00,SummerDesignDay
7,24.996583333333335
652,19.956175526984475
1717,8498.809332019653
1720,0.5467642243600003
1721,0.31438196243297419
1722,0.2323822619270258
1723,10.369501140113009
1724,14.078752658105032
1730,29.311001259605477
1952,7.545573915632698
1953,11.301961349984806
2,1, 7,21, 0, 7, 0.00,60.00,SummerDesignDay
7,25.42804166666666
652,20.339234504454553
1717,9091.51497537985
1720,0.5467642243600003
1721,0.3281426960181447
1722,0.21862152834185545
1723,10.057482985172724
1724,14.025060063562714
1730,30.12970336153954
1952,7.335703317964299
1953,11.350412092432294
2,1, 7,21, 0, 8, 0.00,60.00,SummerDesignDay
7,26.575958333333334
652,20.59731484587905
1717,9431.783965971845
1720,0.5467642243600003
1721,0.3199543301714512
1722,0.22680989418854884
1723,9.840043288870107
1724,13.955828616134094
1730,30.180980556234787
1952,6.840959799294429
1953,11.003873537804323
2,1, 7,21, 0, 9, 0.00,60.00,SummerDesignDay
7,28.287541666666664
652,20.970831919513058
1717,10020.56730336235
1720,0.5467642243600003
1721,0.33551700237274559
1722,0.2112472219872546
1723,9.529972185835762
1724,13.902233386555391
1730,30.180980556234787
1952,6.699999999999995
1953,11.119384731244404
2,1, 7,21, 0,10, 0.00,60.00,SummerDesignDay
7,29.995958333333328
652,21.428698755701129
1717,10764.689419716842
1720,0.5467642243600003
1721,0.36292888960317667
1722,0.18383533475682355
1723,9.150273640435854
1724,13.846619117564675
1730,30.180980556234787
1952,6.699999999999993
1953,11.443463032321885
2,1, 7,21, 0,11, 0.00,60.00,SummerDesignDay
7,31.514374999999995
652,22.076962849409207
1717,11854.501127379915
1720,0.5467642243600003
1721,0.40280846691652358
1722,0.14395575744347664
1723,8.612553932808768
1724,13.783422957942856
1730,30.180980556234787
1952,6.699999999999993
1953,11.917978120847725
2,1, 7,21, 0,12, 0.00,60.00,SummerDesignDay
7,32.697916666666667
652,22.787556434110195
1717,13054.691875366685
1720,0.5467642243600003
1721,0.44796385997858437
1722,0.09880036438141578
1723,8.019564105365907
1724,13.712825029237795
1730,30.180980556234787
1952,6.701327052577977
1953,12.445939332876831
2,1, 7,21, 0,13, 0.00,60.00,SummerDesignDay
7,33.55133333333333
652,23.367106292196227
1717,13569.519576639885
1720,0.5467642243600003
1721,0.5338927788406546
1722,0.012871445519345715
1723,7.778568529960801
1724,13.695880714301988
1730,30.180980556234787
1952,7.542819210426822
1953,13.53847816350313
2,1, 7,21, 0,14, 0.00,60.00,SummerDesignDay
7,34.16645833333333
652,23.76515220696157
1717,13496.698738256182
1720,0.5467642243600003
1721,0.5467642243600003
1722,0.0
1723,7.948760416509223
1724,13.834652834937101
1730,30.180980556234787
1952,7.867687534258206
1953,13.834652834937101
2,1, 7,21, 0,15, 0.00,60.00,SummerDesignDay
7,34.40000000000004
652,23.901047048536499
1717,13492.862718816297
1720,0.5467642243600003
1721,0.5467642243600003
1722,0.0
1723,8.090535531059656
1724,13.97503355535145
1730,30.180980556234787
1952,8.009480170939464
1953,13.97503355535145
2,1, 7,21, 0,16, 0.00,60.00,SummerDesignDay
7,34.110250000000018
652,23.731660228110166
1717,13483.858814607669
1720,0.5467642243600003
1721,0.5467642243600003
1722,0.0
1723,8.144169393246662
1724,14.024845945042868
1730,30.180980556234787
1952,8.063146234408274
1953,14.024845945042868
2,1, 7,21, 0,17, 0.00,60.00,SummerDesignDay
7,33.44366666666667
652,23.337563634744489
1717,13474.880681651297
1720,0.5467642243600003
1721,0.5467642243600003
1722,0.0
1723,8.073261874569822
1724,13.94988372329024
1730,30.180980556234787
1952,7.992266206138719
1953,13.949883723290239
2,1, 7,21, 0,18, 0.00,60.00,SummerDesignDay
7,32.58708333333333
652,22.860318076825896
1717,13268.08926557581
1720,0.5467642243600003
1721,0.5108923815830415
1722,0.035871842776958578
1723,8.001752969951573
1724,13.788049409074342
1730,30.180980556234787
1952,7.479270801658016
1953,13.339741148740132
2,1, 7,21, 0,19, 0.00,60.00,SummerDesignDay
7,31.395624999999997
652,22.3621996008801
1717,12278.957220314558
1720,0.5467642243600003
1721,0.42117918333648188
1722,0.1255850410235181
1723,8.357938625957017
1724,13.713502121746523
1730,30.180980556234787
1952,6.700000003232974
1953,12.102668590035949
2,1, 7,21, 0,20, 0.00,60.00,SummerDesignDay
7,30.16379166666667
652,21.949275405295756
1717,11523.043998147023
1720,0.5467642243600003
1721,0.3945801562456852
1722,0.15218406811431488
1723,8.70408445839899
1724,13.730534002384923
1730,30.180980556234787
1952,6.699999999999993
1953,11.773560079358506
2,1, 7,21, 0,21, 0.00,60.00,SummerDesignDay
7,29.215374999999999
652,21.60840094950545
1717,10963.67294644165
1720,0.5467642243600003
1721,0.373451629595365
1722,0.17331259476463505
1723,8.988820159258914
1724,13.771722527295614
1730,30.180980556234787
1952,6.699999999999993
1953,11.530017382840857
2,1, 7,21, 0,22, 0.00,60.00,SummerDesignDay
7,28.360375
652,21.348676506791845
1717,10556.092623545912
1720,0.5467642243600003
1721,0.3577024000482569
1722,0.1890618243117432
1723,9.206314062784042
1724,13.81174461324993
1730,30.180980556234787
1952,6.699999999999993
1953,11.352548987406369
2,1, 7,21, 0,23, 0.00,60.00,SummerDesignDay
7,27.60195833333334
652,20.81402507618641
1717,9717.246530762983
1720,0.5467642243600003
1721,0.3261908877587123
1722,0.22057333660128765
1723,9.646909347879522
1724,13.886987677313414
1730,28.783268275348737
1952,6.699999999999993
1953,10.987203700528346
2,1, 7,21, 0,24, 0.00,60.00,SummerDesignDay
7,26.936958333333334
652,20.572373542192314
1717,9410.655415109224
1720,0.5467642243600003
1721,0.3129192335403663
1722,0.23384499081963384
1723,9.853999251242004
1724,13.960585065506937
1730,28.63181917731438
1952,6.7027041521533159
1953,10.856418597362728
1,RUNPERIOD 1,  33.63, -84.43,  -5.00, 308.00
2,1, 7, 1, 0, 1, 0.00,60.00,Sunday
7,21.118333333333337
652,21.103461675278998
1717,13437.393044715402
1720,0.5467642243600003
1721,0.5467642243600003
1722,0.0
1723,12.416432287319586
1724,18.284536496455155
1730,11.993291693649678
1952,12.343658705039229
1953,18.284536496455155
2,1, 7, 1, 0, 2, 0.00,60.00,Sunday
7,22.098333333333334
652,20.706367975846385
1717,13119.65938257546
1720,0.5467642243600003
1721,0.46675733557838458
1722,0.08000688878161563
1723,11.987259003747708
1724,17.715905638014843
1730,11.993291693649678
1952,10.765865628766818
1953,16.566905333055759
2,1, 7, 1, 0, 3, 0.00,60.00,Sunday
7,21.949166666666675
652,20.385315453443515
1717,13166.085654441733
1720,0.5467642243600003
1721,0.38593868799561406
1722,0.16082553636438597
1723,11.533308690000009
1724,17.281479108048328
1730,11.993291693649678
1952,9.065492017005815
1953,14.867152905753907
2,1, 7, 1, 0, 4, 0.00,60.00,Sunday
7,21.79833333333333
652,20.114703868448886
1717,12063.492932939558
1720,0.5467642243600003
1721,0.3719890989443898
1722,0.1747751254156103
1723,11.67079196999999
1724,16.937789770395839
1730,11.993291693649678
1952,9.12711011229201
1953,14.441261400123447
2,1, 7, 1, 0, 5, 0.00,60.00,Sunday
7,21.700000000000025
652,20.247832923081373
1717,0.0
1720,0.0
1721,0.0
1722,0.0
1723,11.67079196999999
1724,11.67079196999999
1730,11.993291693649678
1952,9.176516254688357
1953,9.176516254688357
2,1, 7, 1, 0, 6, 0.00,60.00,Sunday
7,21.954166666666663
652,20.337256593510813
1717,13707.480429705534
1720,0.5467642243600003
1721,0.5467642243600003
1722,0.0
1723,11.772770373114878
1724,17.75766515885328
1730,13.055887743172344
1952,11.701947614333785
1953,17.75766515885328
2,1, 7, 1, 0, 7, 0.00,60.00,Sunday
7,22.200000000000025
652,20.633199103963418
1717,0.0
1720,0.0
1721,0.0
1722,0.0
1723,11.519246820751507
1724,11.519246820751507
1730,14.19268968470774
1952,11.439102981365143
1953,11.439102981365143
2,1, 7, 1, 0, 8, 0.00,60.00,Sunday
7,23.31833333333333
652,21.235919396885348
1717,0.0
1720,0.0
1721,0.0
1722,0.0
1723,11.519246820751507
1724,11.519246820751507
1730,14.299459886350725
1952,11.439102981365143
1953,11.439102981365143
2,1, 7, 1, 0, 9, 0.00,60.00,Sunday
7,25.823333333333335
652,21.558502889392508
1717,13550.657960408773
1720,0.5467642243600003
1721,0.5464274634411572
1722,0.00033676091884297097
1723,12.510165983927632
1724,18.42788694192991
1730,14.96315859207719
1952,12.433821671263149
1953,18.423147567183297
2,1, 7, 1, 0,10, 0.00,60.00,Sunday
7,27.759166666666667
652,21.86838437928423
1717,13363.293958023129
1720,0.5467642243600003
1721,0.5256225479403581
1722,0.02114167641964212
1723,12.000332330696912
1724,17.83538306350579
1730,14.451488571504026
1952,11.667788933077345
1953,17.578390867762488
2,1, 7, 1, 0,11, 0.00,60.00,Sunday
7,29.164166666666668
652,22.694382325497565
1717,0.0
1720,0.0
1721,0.0
1722,0.0
1723,11.94515354999999
1724,11.94515354999999
1730,13.408011678280842
1952,10.449892371538456
1953,10.449892371538456
2,1, 7, 1, 0,12, 0.00,60.00,Sunday
7,30.0
652,23.851561034226003
1717,0.0
1720,0.0
1721,0.0
1722,0.0
1723,11.94515354999999
1724,11.94515354999999
1730,13.50506209199758
1952,10.449892371538456
1953,10.449892371538456
2,1, 7, 1, 0,13, 0.00,60.00,Sunday
7,30.86416666666667
652,24.658069360553694
1717,0.0
1720,0.0
1721,0.0
1722,0.0
1723,11.94515354999999
1724,11.94515354999999
1730,13.297626761261525
1952,10.449892371538456
1953,10.449892371538456
2,1, 7, 1, 0,14, 0.00,60.00,Sunday
7,29.717500000000006
652,24.78332815900119
1717,0.0
1720,0.0
1721,0.0
1722,0.0
1723,11.94515354999999
1724,11.94515354999999
1730,13.352955160201127
1952,10.449892371538456
1953,10.449892371538456
2,1, 7, 1, 0,15, 0.00,60.00,Sunday
7,28.613333333333335
652,24.807814642815733
1717,0.0
1720,0.0
1721,0.0
1722,0.0
1723,11.94515354999999
1724,11.94515354999999
1730,13.381093916587478
1952,10.449892371538456
1953,10.449892371538456
2,1, 7, 1, 0,16, 0.00,60.00,Sunday
7,28.0275
652,24.683918791978827
1717,0.0
1720,0.0
1721,0.0
1722,0.0
1723,11.94515354999999
1724,11.94515354999999
1730,13.546793909199016
1952,10.449892371538456
1953,10.449892371538456
2,1, 7, 1, 0,17, 0.00,60.00,Sunday
7,25.276666666666665
652,24.258394267142113
1717,0.0
1720,0.0
1721,0.0
1722,0.0
1723,11.94515354999999
1724,11.94515354999999
1730,14.034892525030294
1952,10.449892371538456
1953,10.449892371538456
2,1, 7, 1, 0,18, 0.00,60.00,Sunday
7,23.594999999999997
652,23.841622517198986
1717,0.0
1720,0.0
1721,0.0
1722,0.0
1723,11.94515354999999
1724,11.94515354999999
1730,14.42555914419793
1952,10.449892371538456
1953,10.449892371538456
2,1, 7, 1, 0,19, 0.00,60.00,Sunday
7,23.604999999999995
652,23.511471559576749
1717,0.0
1720,0.0
1721,0.0
1722,0.0
1723,11.94515354999999
1724,11.94515354999999
1730,13.820638951897559
1952,10.449892371538456
1953,10.449892371538456
2,1, 7, 1, 0,20, 0.00,60.00,Sunday
7,21.917500000000005
652,23.17920482581424
1717,0.0
1720,0.0
1721,0.0
1722,0.0
1723,11.94515354999999
1724,11.94515354999999
1730,12.405490050152244
1952,10.449892371538456
1953,10.449892371538456
2,1, 7, 1, 0,21, 0.00,60.00,Sunday
7,20.304999999999994
652,22.763690122382397
1717,0.0
1720,0.0
1721,0.0
1722,0.0
1723,11.94515354999999
1724,11.94515354999999
1730,12.535704151591915
1952,10.449892371538456
1953,10.449892371538456
2,1, 7, 1, 0,22, 0.00,60.00,Sunday
7,20.294999999999996
652,22.632780184339717
1717,0.0
1720,0.0
1721,0.0
1722,0.0
1723,11.94515354999999
1724,11.94515354999999
1730,11.988726412488072
1952,10.449892371538456
1953,10.449892371538456
2,1, 7, 1, 0,23, 0.00,60.00,Sunday
7,20.0
652,22.537591780547726
1717,0.0
1720,0.0
1721,0.0
1722,0.0
1723,11.94515354999999
1724,11.94515354999999
1730,11.988726412488072
1952,10.449892371538456
1953,10.449892371538456
2,1, 7, 1, 0,24, 0.00,60.00,Sunday
7,20.0
652,21.92248383293307
1717,13692.423440793575
1720,0.5467642243600003
1721,0.5461037016726064
1722,0.0006605226873939144
1723,13.775923732054734
1724,19.75767423709632
1730,11.988726412488072
1952,13.696080045697047
1953,19.745007746605887
2,2, 7, 2, 0, 1, 0.00,60.00,Monday
7,20.0
652,21.12966586063311
1717,13437.391652780705
1720,0.5467642243600003
1721,0.5467642243600003
1722,0.0
1723,12.41837181545891
1724,18.286478679015106
1730,11.988726412488072
1952,12.345587389599738
1953,18.286478679015106
2,2, 7, 2, 0, 2, 0.00,60.00,Monday
7,20.0
652,20.689771924278657
1717,13455.821047913914
1720,0.5467642243600003
1721,0.5467642243600003
1722,0.0
1723,11.824671331486865
1724,17.699827437509116
1730,11.988726412488072
1952,11.750074345214236
1953,17.699827437509116
2,2, 7, 2, 0, 3, 0.00,60.00,Monday
7,19.440833333333335
652,20.334070443619749
1717,13454.285866524273
1720,0.5467642243600003
1721,0.5467642243600003
1722,0.0
1723,11.36324517826014
1724,17.236954582522509
1730,11.988726412488072
1952,11.285683851076334
1953,17.236954582522509
2,2, 7, 2, 0, 4, 0.00,60.00,Monday
7,19.154166666666666
652,19.97758452065362
1717,13444.34454641392
1720,0.5467642243600003
1721,0.5467642243600003
1722,0.0
1723,10.885776215949076
1724,16.754343003718036
1730,11.988726412488072
1952,10.806577586911015
1953,16.754343003718036
2,2, 7, 2, 0, 5, 0.00,60.00,Monday
7,19.399999999999996
652,19.60862765977632
1717,12447.783316887564
1720,0.5467642243600003
1721,0.5211400788706041
1722,0.02562414548939595
1723,10.660042836850107
1724,16.09324307456212
1730,11.988726412488072
1952,10.341892892430585
1953,15.82820620059612
2,2, 7, 2, 0, 6, 0.00,60.00,Monday
7,19.399999999999996
652,19.18336740611704
1717,9719.345589000492
1720,0.5467642243600003
1721,0.4747676470579592
1722,0.07199657730204069
1723,11.008180359010158
1724,15.250893890403376
1730,11.988726412488072
1952,10.31711711711712
1953,14.606975187217147
2,2, 7, 2, 0, 7, 0.00,60.00,Monday
7,19.705
652,19.016902603623369
1717,8118.828198475964
1720,0.5467642243600003
1721,0.43374447168787419
1722,0.11301975267212582
1723,11.153247792885973
1724,14.69745434271194
1730,13.21619440487727
1952,10.17089788480649
1953,13.762250932213606
2,2, 7, 2, 0, 8, 0.00,60.00,Monday
7,21.118333333333337
652,19.807260039177526
1717,8764.537799909629
1720,0.5467642243600003
1721,0.4363281613963953
1722,0.11043606296360482
1723,10.51133590614719
1724,14.336705852488827
1730,11.401801832380715
1952,9.48373069582031
1953,13.356238473323633
2,2, 7, 2, 0, 9, 0.00,60.00,Monday
7,23.62333333333333
652,20.45056377068413
1717,9406.390049316879
1720,0.5467642243600003
1721,0.39101382396771569
1722,0.15575040039228445
1723,9.96387022578994
1724,14.068735829819565
1730,11.348640386680805
1952,8.247549536458142
1953,12.399545420073635
2,2, 7, 2, 0,10, 0.00,60.00,Monday
7,25.55916666666667
652,20.958127186220243
1717,10025.359286908762
1720,0.5467642243600003
1721,0.36402678514408856
1722,0.18273743921591155
1723,9.541390021093717
1724,13.915758917736591
1730,11.348640386680805
1952,7.27449803509032
1953,11.695990641993046
2,2, 7, 2, 0,11, 0.00,60.00,Monday
7,26.65916666666666
652,21.473821093935628
1717,10762.615880946396
1720,0.5467642243600003
1721,0.36910092308259159
1722,0.17766330127740846
1723,9.112870471313295
1724,13.808252788563163
1730,11.348640386680805
1952,6.783661685662576
1953,11.526160969543135
2,2, 7, 2, 0,12, 0.00,60.00,Monday
7,28.06416666666667
652,22.065739028873968
1717,11690.064867937403
1720,0.5467642243600003
1721,0.40089148303382035
1722,0.1458727413261797
1723,8.620389906141807
1724,13.719548640737902
1730,11.348640386680805
1952,6.699999999999993
1953,11.846267953542676
2,2, 7, 2, 0,13, 0.00,60.00,Monday
7,29.459166666666666
652,24.04899991812955
1717,13517.556567133843
1720,0.5467642243600003
1721,0.5365886561269082
1722,0.01017556823309206
1723,7.695628930779616
1724,13.59011256233904
1730,11.348640386680805
1952,7.489609817508318
1953,13.46144419252782
2,2, 7, 2, 0,14, 0.00,60.00,Monday
7,29.440833333333328
652,23.20824609162859
1717,13349.917603387747
1720,0.5467642243600003
1721,0.5099204147544123
1722,0.036843809605587727
1723,7.7426576840188698
1724,13.564138199693434
1730,11.348640386680805
1952,7.221518436623819
1953,13.115625423663424
2,2, 7, 2, 0,15, 0.00,60.00,Monday
7,29.76416666666667
652,23.01941810182232
1717,13085.764283221262
1720,0.5467642243600003
1721,0.4610480431619793
1722,0.08571618119802081
1723,7.816766333346928
1724,13.523199332755489
1730,11.348640386680805
1952,6.70000000025994
1953,12.45352958122793
2,2, 7, 2, 0,16, 0.00,60.00,Monday
7,30.854166666666669
652,22.961919397720938
1717,12914.14203736481
1720,0.5467642243600003
1721,0.45695907058656429
1722,0.08980515377343572
1723,7.863097371652961
1724,13.494775976751292
1730,11.348640386680805
1952,6.699999999999993
1953,12.378775915055396
2,2, 7, 2, 0,17, 0.00,60.00,Monday
7,30.84583333333334
652,22.760631000663869
1717,12520.71635015002
1720,0.5467642243600003
1721,0.44350455670868918
1722,0.10325966765131106
1723,8.029424054469507
1724,13.489837810144975
1730,11.348640386680805
1952,6.699999999999993
1953,12.207513680723176
2,2, 7, 2, 0,18, 0.00,60.00,Monday
7,30.59999999999997
652,24.054518878301434
1717,13504.6866980297
1720,0.5467642243600003
1721,0.5394483179054344
1722,0.007315906454565925
1723,7.503279454661329
1724,13.391774449444848
1730,11.348640386680805
1952,7.334836862531121
1953,13.301387921917549
2,2, 7, 2, 0,19, 0.00,60.00,Monday
7,29.430833333333337
652,21.667580940582913
1717,10452.410586207512
1720,0.5467642243600003
1721,0.37748023259671389
1722,0.16928399176328627
1723,8.917521624962158
1724,13.477198094309339
1730,30.329586165041019
1952,6.763977976816561
1953,11.37449039968396
2,2, 7, 2, 0,20, 0.00,60.00,Monday
7,26.927500000000003
652,20.188995915665037
1717,8267.704327330219
1720,0.5467642243600003
1721,0.2871798516585761
1722,0.259584372701424
1723,10.158603471873786
1724,13.766748834291752
1730,32.08620546829979
1952,6.806747806659074
1953,10.462026114277924
2,2, 7, 2, 0,21, 0.00,60.00,Monday
7,24.430833333333334
652,19.485296324849938
1717,7408.814132496621
1720,0.5467642243600003
1721,0.2904064153213745
1722,0.2563578090386256
1723,10.754698742334475
1724,13.988582509846655
1730,31.98041830835121
1952,7.805335827108237
1953,11.086360710942599
2,2, 7, 2, 0,22, 0.00,60.00,Monday
7,23.045833333333339
652,19.08207690798766
1717,6942.095144844784
1720,0.5467642243600003
1721,0.2994734892290134
1722,0.2472907351309867
1723,11.094773312743012
1724,14.125235694086815
1730,21.285416797072299
1952,8.506349810575627
1953,11.583957899840958
2,2, 7, 2, 0,23, 0.00,60.00,Monday
7,22.494999999999999
652,18.87617725930444
1717,6722.479385813687
1720,0.5467642243600003
1721,0.3006416686839753
1722,0.24612255567602485
1723,11.267098416409818
1724,14.201835923410404
1730,12.49694356972821
1952,8.778611613793512
1953,11.760497155837103
2,2, 7, 2, 0,24, 0.00,60.00,Monday
7,21.640833333333334
652,18.683351897504175
1717,6456.216351072242
1720,0.5467642243600003
1721,0.31050614104951387
1722,0.23625808331048613
1723,11.427825411309489
1724,14.24645389499725
1730,11.989382745395833
1952,9.197750261159757
1953,12.063528950544253
End of Data
 Number of Records Written=        1056
