Program Version,EnergyPlus, Version 9.5.0-de239b2e5f, YMD=2021.07.22 17:51
1,5,Environment Title[],Latitude[deg],Longitude[deg],Time Zone[],Elevation[m]
2,8,Day of Simulation[],Month[],Day of Month[],DST Indicator[1=yes 0=no],Hour[],StartMinute[],EndMinute[],DayType
3,5,Cumulative Day of Simulation[],Month[],Day of Month[],DST Indicator[1=yes 0=no],DayType  ! When Daily Report Variables Requested
4,2,Cumulative Days of Simulation[],Month[]  ! When Monthly Report Variables Requested
5,1,Cumulative Days of Simulation[] ! When Run Period Report Variables Requested
6,1,Calendar Year of Simulation[] ! When Annual Report Variables Requested
7,1,Environment,Site Outdoor Air Drybulb Temperature [C] !Hourly
652,1,PERIMETER_BOT_ZN_1,Zone Mean Air Temperature [C] !Hourly
1717,1,PERI1_TOP_LOTEMP,Zone Radiant HVAC Cooling Rate [W] !Hourly
1720,1,PERI1_TOP_LOTEMP,Zone Radiant HVAC Mass Flow Rate [kg/s] !Hourly
1721,1,PERI1_TOP_LOTEMP,Zone Radiant HVAC Injection Mass Flow Rate [kg/s] !Hourly
1722,1,PERI1_TOP_LOTEMP,Zone Radiant HVAC Recirculation Mass Flow Rate [kg/s] !Hourly
1723,1,PERI1_TOP_LOTEMP,Zone Radiant HVAC Inlet Temperature [C] !Hourly
1724,1,PERI1_TOP_LOTEMP,Zone Radiant HVAC Outlet Temperature [C] !Hourly
1730,1,PERI2_TOP_LOTEMP,Zone Radiant HVAC Outlet Temperature [C] !Hourly
1952,1,PERI1_TOP_LOTEMP_CHW_INLET,System Node Temperature [C] !Hourly
1953,1,PERI1_TOP_LOTEMP_CHW_OUTLET,System Node Temperature [C] !Hourly
End of Data Dictionary
1,ATLANTA-HARTSFIELD.JACKSON.INTL.AP_GA_USA ANN HTG 99.6% CONDNS DB,  33.63, -84.43,  -5.00, 308.00
2,1, 1,21, 0, 1, 0.00,60.00,WinterDesignDay
7,-6.300000000000007
652,16.010609115123445
1717,0.0
1720,0.15232947013333335
1721,0.02488194441315656
1722,0.12744752572017679
1723,30.079382597406047
1724,27.201924699105157
1730,40.8478521185969
1952,12.92878363827891
1953,12.92878363827891
2,1, 1,21, 0, 2, 0.00,60.00,WinterDesignDay
7,-6.300000000000007
652,16.01273822320849
1717,0.0
1720,0.1433689130666667
1721,0.023379979485560276
1722,0.1199889335811064
1723,30.069259792964968
1724,27.36613550872097
1730,40.847169716203179
1952,12.92878363827891
1953,12.92878363827891
2,1, 1,21, 0, 3, 0.00,60.00,WinterDesignDay
7,-6.300000000000007
652,16.009754289396605
1717,0.0
1720,0.1612900272
1721,0.026354789493765786
1722,0.13493523770623426
1723,30.0841053941916
1724,27.036498633292003
1730,40.84655177627316
1952,12.92878363827891
1953,12.92878363827891
2,1, 1,21, 0, 4, 0.00,60.00,WinterDesignDay
7,-6.300000000000007
652,16.012345712258907
1717,0.0
1720,0.1433689130666667
1721,0.023405166418221724
1722,0.11996374664844496
1723,30.060048497096419
1724,27.35309865009221
1730,40.84599047015952
1952,12.92878363827891
1953,12.92878363827891
2,1, 1,21, 0, 5, 0.00,60.00,WinterDesignDay
7,-6.300000000000007
652,16.010653707673993
1717,0.0
1720,0.15232947013333335
1721,0.024911031019644395
1722,0.12741843911368895
1723,30.089785192705006
1724,27.209362874453445
1730,40.84547994137283
1952,12.92878363827891
1953,12.92878363827891
2,1, 1,21, 0, 6, 0.00,60.00,WinterDesignDay
7,-6.300000000000007
652,16.010425968216894
1717,0.0
1720,0.1612900272
1721,0.026346745363186716
1722,0.13494328183681329
1723,30.07455333460962
1724,27.02775983294358
1730,40.84501466202039
1952,12.92878363827891
1953,12.92878363827891
2,1, 1,21, 0, 7, 0.00,60.00,WinterDesignDay
7,-6.300000000000007
652,16.073699118345567
1717,0.0
1720,0.026881671200000003
1721,0.004545817273392907
1722,0.022335853926607097
1723,30.083041682519825
1724,29.553151373821028
1730,40.85634532840337
1952,12.92878363827891
1953,12.92878363827891
2,1, 1,21, 0, 8, 0.00,60.00,WinterDesignDay
7,-6.300000000000007
652,16.028001835787124
1717,0.0
1720,0.053763342400000007
1721,0.00907130454787875
1722,0.04469203785212125
1723,30.01710263065029
1724,28.960210681353474
1730,40.86430005759646
1952,12.92878363827891
1953,12.92878363827891
2,1, 1,21, 0, 9, 0.00,60.00,WinterDesignDay
7,-6.300000000000007
652,16.02311659245585
1717,0.0
1720,0.07168445653333335
1721,0.012115558706423028
1722,0.05956889782691031
1723,30.041617859308077
1724,28.630172480891735
1730,40.86644867532896
1952,12.92878363827891
1953,12.92878363827891
2,1, 1,21, 0,10, 0.00,60.00,WinterDesignDay
7,-6.300000000000007
652,16.022960354199978
1717,0.0
1720,0.07168445653333335
1721,0.012104302486088608
1722,0.05958015404724473
1723,30.03801987972736
1724,28.628024646772464
1730,40.8676910695514
1952,12.92878363827891
1953,12.92878363827891
2,1, 1,21, 0,11, 0.00,60.00,WinterDesignDay
7,-6.300000000000007
652,16.0212300000227
1717,0.0
1720,0.07168445653333335
1721,0.012121674549151689
1722,0.059562781984181658
1723,30.054968290325996
1724,28.643013536804486
1730,40.868609028008517
1952,12.92878363827891
1953,12.92878363827891
2,1, 1,21, 0,12, 0.00,60.00,WinterDesignDay
7,-6.300000000000007
652,16.02219149250126
1717,0.0
1720,0.07168445653333335
1721,0.012086843099457595
1722,0.059597613433875738
1723,30.032485090810437
1724,28.62473692692684
1730,40.86937513499415
1952,12.92878363827891
1953,12.92878363827891
2,1, 1,21, 0,13, 0.00,60.00,WinterDesignDay
7,-6.300000000000007
652,16.02128655571646
1717,0.0
1720,0.08064501360000001
1721,0.013629165055218887
1722,0.06701584854478113
1723,30.044316784846197
1724,28.45667289380263
1730,40.870045507975579
1952,12.92878363827891
1953,12.92878363827891
2,1, 1,21, 0,14, 0.00,60.00,WinterDesignDay
7,-6.300000000000007
652,16.021937386698668
1717,0.0
1720,0.08064501360000001
1721,0.01359104003476255
1722,0.06705397356523747
1723,30.0397769170413
1724,28.4572676926426
1730,40.870641910055159
1952,12.92878363827891
1953,12.92878363827891
2,1, 1,21, 0,15, 0.00,60.00,WinterDesignDay
7,-6.300000000000007
652,16.02298533338868
1717,0.0
1720,0.07168445653333335
1721,0.012083284600161183
1722,0.05960117193317215
1723,30.035304999430914
1724,28.628125350336285
1730,40.87117544716125
1952,12.92878363827891
1953,12.92878363827891
2,1, 1,21, 0,16, 0.00,60.00,WinterDesignDay
7,-6.300000000000007
652,16.023022653318649
1717,0.0
1720,0.07168445653333335
1721,0.012080116858983737
1722,0.0596043396743496
1723,30.040541984301837
1724,28.633806429085689
1730,40.87165383278444
1952,12.92878363827891
1953,12.92878363827891
2,1, 1,21, 0,17, 0.00,60.00,WinterDesignDay
7,-6.300000000000007
652,16.02215085413572
1717,0.0
1720,0.07168445653333335
1721,0.012086321605640783
1722,0.05959813492769255
1723,30.036031851258586
1724,28.628579409157795
1730,40.87208308582655
1952,12.92878363827891
1953,12.92878363827891
2,1, 1,21, 0,18, 0.00,60.00,WinterDesignDay
7,-6.300000000000007
652,16.021691027472888
1717,0.0
1720,0.07168445653333335
1721,0.012080658611716196
1722,0.059603797921617147
1723,30.03866232770033
1724,28.631906658484448
1730,40.87246847481149
1952,12.92878363827891
1953,12.92878363827891
2,1, 1,21, 0,19, 0.00,60.00,WinterDesignDay
7,-6.300000000000007
652,16.000237940764867
1717,0.0
1720,0.2329744837333332
1721,0.038551936305908408
1722,0.19442254742742494
1723,30.153393698943096
1724,25.697487463732139
1730,40.86101671793986
1952,12.92878363827891
1953,12.92878363827891
2,1, 1,21, 0,20, 0.00,60.00,WinterDesignDay
7,-6.300000000000007
652,16.013380470832599
1717,0.0
1720,0.15232947013333335
1721,0.02474247565502461
1722,0.1275869944783087
1723,30.052387517954704
1724,27.19260944519484
1730,40.85297522097049
1952,12.92878363827891
1953,12.92878363827891
2,1, 1,21, 0,21, 0.00,60.00,WinterDesignDay
7,-6.300000000000007
652,16.01318963163228
1717,0.0
1720,0.1612900272
1721,0.02624468555306136
1722,0.13504534164693864
1723,30.05878713983577
1724,27.02577150271062
1730,40.850752014106259
1952,12.92878363827891
1953,12.92878363827891
2,1, 1,21, 0,22, 0.00,60.00,WinterDesignDay
7,-6.300000000000007
652,16.012820823247055
1717,0.0
1720,0.1433689130666667
1721,0.023357015894772728
1722,0.12001189717189395
1723,30.059429394532605
1724,27.359595970791366
1730,40.84943837555101
1952,12.92878363827891
1953,12.92878363827891
2,1, 1,21, 0,23, 0.00,60.00,WinterDesignDay
7,-6.300000000000007
652,16.010536285360084
1717,0.0
1720,0.1612900272
1721,0.026338032830031018
1722,0.134951994369969
1723,30.08456547797822
1724,27.0393746029954
1730,40.84844992584317
1952,12.92878363827891
1953,12.92878363827891
2,1, 1,21, 0,24, 0.00,60.00,WinterDesignDay
7,-6.300000000000007
652,16.010203303875249
1717,0.0
1720,0.1612900272
1721,0.026316486781921338
1722,0.13497354041807867
1723,30.076089548252374
1724,27.033276474608888
1730,40.84761443154918
1952,12.92878363827891
1953,12.92878363827891
1,ATLANTA-HARTSFIELD.JACKSON.INTL.AP_GA_USA ANN CLG .4% CONDNS DB=>MWB,  33.63, -84.43,  -5.00, 308.00
2,1, 7,21, 0, 1, 0.00,60.00,SummerDesignDay
7,26.32025
652,20.398511189228548
1717,9177.344530121713
1720,0.5467642243600003
1721,0.3111601831305239
1722,0.23560404122947618
1723,9.998990532737562
1724,14.003956115304698
1730,28.938372322114796
1952,6.88344961403727
1953,10.935546075799487
2,1, 7,21, 0, 2, 0.00,60.00,SummerDesignDay
7,25.84683333333334
652,20.271829924538648
1717,8998.71573932765
1720,0.5467642243600003
1721,0.31434560408797537
1722,0.23241862027202474
1723,10.105275947275237
1724,14.032411180219445
1730,28.98552250905524
1952,7.119586882741275
1953,11.093854465889998
2,1, 7,21, 0, 3, 0.00,60.00,SummerDesignDay
7,25.515125
652,20.171588314563164
1717,8847.561242189999
1720,0.5467642243600003
1721,0.3158600259168491
1722,0.23090419844315095
1723,10.18907142103394
1724,14.050333906117333
1730,29.051342328501506
1952,7.284739011941207
1953,11.193134978115462
2,1, 7,21, 0, 4, 0.00,60.00,SummerDesignDay
7,25.230124999999995
652,20.08603517464562
1717,8711.80555218097
1720,0.5467642243600003
1721,0.3171236101857205
1722,0.22964061417427956
1723,10.260515559150243
1724,14.062609195699697
1730,29.118282956095073
1952,7.425962837837838
1953,11.275190919728353
2,1, 7,21, 0, 5, 0.00,60.00,SummerDesignDay
7,24.993416666666673
652,20.01112015719607
1717,8589.411922287582
1720,0.5467642243600003
1721,0.3179392177822804
1722,0.2288250065777197
1723,10.323108865142287
1724,14.07185345845402
1730,29.184530760689328
1952,7.544027675604871
1953,11.339907559088419
2,1, 7,21, 0, 6, 0.00,60.00,SummerDesignDay
7,24.996583333333335
652,19.956175527079659
1717,8498.809332167692
1720,0.5467642243600003
1721,0.31438196243925178
1722,0.23238226192074833
1723,10.369501140031293
1724,14.078752658089173
1730,29.311001299716165
1952,7.545573915632699
1953,11.301961350050684
2,1, 7,21, 0, 7, 0.00,60.00,SummerDesignDay
7,25.42804166666666
652,20.339234503525185
1717,9091.514973650541
1720,0.5467642243600003
1721,0.32814269595678549
1722,0.21862152840321459
1723,10.057482985928282
1724,14.025060063564086
1730,30.129704134597849
1952,7.335703317964298
1953,11.350412091678113
2,1, 7,21, 0, 8, 0.00,60.00,SummerDesignDay
7,26.575958333333334
652,20.59731484537717
1717,9431.78396513181
1720,0.5467642243600003
1721,0.31995433013972709
1722,0.22680989422027296
1723,9.840043289303927
1724,13.955828616201809
1730,30.18098133841568
1952,6.840959799294428
1953,11.003873537438217
2,1, 7,21, 0, 9, 0.00,60.00,SummerDesignDay
7,28.287541666666664
652,20.970831919841193
1717,10020.567304030821
1720,0.5467642243600003
1721,0.33551700239336459
1722,0.2112472219666354
1723,9.529972185578507
1724,13.90223338658985
1730,30.18098133841568
1952,6.699999999999995
1953,11.119384731536126
2,1, 7,21, 0,10, 0.00,60.00,SummerDesignDay
7,29.995958333333328
652,21.42869875730345
1717,10764.689422717383
1720,0.5467642243600003
1721,0.3629288897042469
1722,0.18383533465575295
1723,9.15027363910968
1724,13.846619117546452
1730,30.18098133841568
1952,6.699999999999993
1953,11.443463033629824
2,1, 7,21, 0,11, 0.00,60.00,SummerDesignDay
7,31.514374999999995
652,22.076962848869664
1717,11854.501126233252
1720,0.5467642243600003
1721,0.40280846688315016
1722,0.14395575747684986
1723,8.612553933213313
1724,13.78342295784803
1730,30.18098133841568
1952,6.699999999999993
1953,11.917978120348355
2,1, 7,21, 0,12, 0.00,60.00,SummerDesignDay
7,32.697916666666667
652,22.78755643277485
1717,13054.69187276881
1720,0.5467642243600003
1721,0.4479638598818511
1722,0.09880036447814897
1723,8.019564106489375
1724,13.712825029229539
1730,30.18098133841568
1952,6.70132705249956
1953,12.44593933161156
2,1, 7,21, 0,13, 0.00,60.00,SummerDesignDay
7,33.55133333333333
652,23.36710629124986
1717,13569.51957680599
1720,0.5467642243600003
1721,0.5338927787105955
1722,0.012871445649404848
1723,7.7785685296038749
1724,13.695880714017525
1730,30.18098133841568
1952,7.542819208436829
1953,13.538478161569835
2,1, 7,21, 0,14, 0.00,60.00,SummerDesignDay
7,34.16645833333333
652,23.765152206025886
1717,13496.698738241948
1720,0.5467642243600003
1721,0.5467642243600003
1722,0.0
1723,7.948760415953776
1724,13.834652834375419
1730,30.18098133841568
1952,7.867687533702705
1953,13.834652834375419
2,1, 7,21, 0,15, 0.00,60.00,SummerDesignDay
7,34.40000000000004
652,23.901047047680384
1717,13492.862718824446
1720,0.5467642243600003
1721,0.5467642243600003
1722,0.0
1723,8.090535530368677
1724,13.97503355466363
1730,30.18098133841568
1952,8.00948017025507
1953,13.975033554663627
2,1, 7,21, 0,16, 0.00,60.00,SummerDesignDay
7,34.110250000000018
652,23.731660227282466
1717,13483.858814597672
1720,0.5467642243600003
1721,0.5467642243600003
1722,0.0
1723,8.144169392495373
1724,14.024845944286762
1730,30.18098133841568
1952,8.063146233654062
1953,14.024845944286762
2,1, 7,21, 0,17, 0.00,60.00,SummerDesignDay
7,33.44366666666667
652,23.337563633913534
1717,13474.880681648443
1720,0.5467642243600003
1721,0.5467642243600003
1722,0.0
1723,8.073261873774206
1724,13.949883722492976
1730,30.18098133841568
1952,7.9922662053430379
1953,13.949883722492976
2,1, 7,21, 0,18, 0.00,60.00,SummerDesignDay
7,32.58708333333333
652,22.86031807602459
1717,13268.089264093549
1720,0.5467642243600003
1721,0.5108923813542371
1722,0.03587184300576306
1723,8.001752969951815
1724,13.788049408428142
1730,30.18098133841568
1952,7.479270798825322
1953,13.339741145172038
2,1, 7,21, 0,19, 0.00,60.00,SummerDesignDay
7,31.395624999999997
652,22.362199600253406
1717,12278.95721855823
1720,0.5467642243600003
1721,0.42117918329138018
1722,0.12558504106861988
1723,8.357938626481442
1724,13.713502121505743
1730,30.18098133841568
1952,6.700000003232973
1953,12.102668589270742
2,1, 7,21, 0,20, 0.00,60.00,SummerDesignDay
7,30.16379166666667
652,21.949275404828567
1717,11523.04399705354
1720,0.5467642243600003
1721,0.39458015621342126
1722,0.15218406814657874
1723,8.704084458790464
1724,13.730534002300017
1730,30.18098133841568
1952,6.699999999999993
1953,11.773560078882129
2,1, 7,21, 0,21, 0.00,60.00,SummerDesignDay
7,29.215374999999999
652,21.60840094913843
1717,10963.67294568474
1720,0.5467642243600003
1721,0.37345162957118119
1722,0.1733125947888189
1723,8.988820159563908
1724,13.771722527270724
1730,30.18098133841568
1952,6.699999999999993
1953,11.530017382510968
2,1, 7,21, 0,22, 0.00,60.00,SummerDesignDay
7,28.360375
652,21.34867650633725
1717,10556.092622682576
1720,0.5467642243600003
1721,0.35770240001918698
1722,0.18906182434081307
1723,9.206314063163147
1724,13.81174461325272
1730,30.18098133841568
1952,6.699999999999993
1953,11.352548987030055
2,1, 7,21, 0,23, 0.00,60.00,SummerDesignDay
7,27.60195833333334
652,20.81402507576309
1717,9717.246529980588
1720,0.5467642243600003
1721,0.3261908877322
1722,0.22057333662780008
1723,9.646909348233088
1724,13.886987677326062
1730,28.78326834383393
1952,6.699999999999993
1953,10.987203700187424
2,1, 7,21, 0,24, 0.00,60.00,SummerDesignDay
7,26.936958333333334
652,20.572373541837889
1717,9410.655414467965
1720,0.5467642243600003
1721,0.3129192335185967
1722,0.23384499084140315
1723,9.85399925153809
1724,13.960585065523543
1730,28.63181918773167
1952,6.7027041521533159
1953,10.856418597083252
1,RUNPERIOD 1,  33.63, -84.43,  -5.00, 308.00
2,1, 7, 1, 0, 1, 0.00,60.00,Sunday
7,21.118333333333337
652,20.205002477790278
1717,9988.73371155662
1720,0.5467642243600003
1721,0.3037042616049781
1722,0.24305996275502199
1723,13.125887310000018
1724,17.488850655964407
1730,11.993593894984504
1952,9.522625048782665
1953,13.935030220230154
2,1, 7, 1, 0, 2, 0.00,60.00,Sunday
7,22.098333333333334
652,20.163121624502648
1717,6450.6922330136389
1720,0.5467642243600003
1721,0.18245155671739356
1722,0.3643126676426066
1723,14.748741709999992
1724,17.56764048910923
1730,11.993593894984504
1952,8.978645698011276
1953,11.844739577606895
2,1, 7, 1, 0, 3, 0.00,60.00,Sunday
7,21.949166666666675
652,20.064130226548209
1717,8105.058710024056
1720,0.5467642243600003
1721,0.23538969421899134
1722,0.3113745301410088
1723,13.845955880000013
1724,17.38688249406017
1730,11.993593894984504
1952,9.053182680500783
1953,12.64129218218711
2,1, 7, 1, 0, 4, 0.00,60.00,Sunday
7,21.79833333333333
652,19.953059749522159
1717,6372.894778388447
1720,0.5467642243600003
1721,0.18926955286481213
1722,0.35749467149518807
1723,14.52318460000001
1724,17.307906449462917
1730,11.993593894984504
1952,9.12711011229201
1953,11.959024010298059
2,1, 7, 1, 0, 5, 0.00,60.00,Sunday
7,21.700000000000025
652,19.662106209806269
1717,13607.263340960748
1720,0.5467642243600003
1721,0.5446522855263631
1722,0.002111938833637131
1723,10.463044315127494
1724,16.401998812832959
1730,11.993593894984504
1952,10.35608078510845
1953,16.371923104312413
2,1, 7, 1, 0, 6, 0.00,60.00,Sunday
7,21.954166666666663
652,19.12142968581062
1717,13085.258307246235
1720,0.5467642243600003
1721,0.5467642243600003
1722,0.0
1723,9.32733713194441
1724,15.036441185140993
1730,13.056275488368958
1952,9.261744907781866
1953,15.036441185140993
2,1, 7, 1, 0, 7, 0.00,60.00,Sunday
7,22.200000000000025
652,19.025631337844876
1717,4393.807650062808
1720,0.5467642243600003
1721,0.17753661886281664
1722,0.36922760549718339
1723,13.05700734000001
1724,14.976133820672967
1730,14.193504074686392
1952,8.929769780679277
1953,10.89606848108054
2,1, 7, 1, 0, 8, 0.00,60.00,Sunday
7,23.31833333333333
652,19.5859559121185
1717,0.0
1720,0.0
1721,0.0
1722,0.0
1723,13.05700734000001
1724,13.05700734000001
1730,14.299454487207527
1952,8.92972972972973
1953,8.92972972972973
2,1, 7, 1, 0, 9, 0.00,60.00,Sunday
7,25.823333333333335
652,20.069192321204864
1717,11084.895372989258
1720,0.5467642243600003
1721,0.31550556620332556
1722,0.2312586581566745
1723,10.829754019999998
1724,15.668324137753987
1730,14.963100632648198
1952,7.195770765185799
1953,12.081483012399192
2,1, 7, 1, 0,10, 0.00,60.00,Sunday
7,27.759166666666667
652,20.656751896087689
1717,2983.990364243486
1720,0.5467642243600003
1721,0.07789363494918517
1722,0.4688705894108151
1723,14.829575800000013
1724,16.13358495331359
1730,14.451422903213983
1952,6.700000005584965
1953,8.051205353043635
2,1, 7, 1, 0,11, 0.00,60.00,Sunday
7,29.164166666666668
652,21.412486441829708
1717,7249.458541832971
1720,0.5467642243600003
1721,0.1824388559858023
1722,0.36432536837419768
1723,13.164599240000002
1724,16.33111399618387
1730,13.407950612971752
1952,6.699999999999993
1953,9.913688430147858
2,1, 7, 1, 0,12, 0.00,60.00,Sunday
7,30.0
652,22.15632854324141
1717,8152.4279089141059
1720,0.5467642243600003
1721,0.20547025297130942
1722,0.34129397138869069
1723,12.739598129999992
1724,16.300090182673089
1730,13.505018194536869
1952,6.699999999999993
1953,10.307659981783905
2,1, 7, 1, 0,13, 0.00,60.00,Sunday
7,30.86416666666667
652,22.74132009175468
1717,7363.646436769088
1720,0.5467642243600003
1721,0.1811306006987253
1722,0.3656336236612747
1723,13.333847149999999
1724,16.55039444060245
1730,13.297881595378119
1952,6.699999999999993
1953,9.96372325299663
2,1, 7, 1, 0,14, 0.00,60.00,Sunday
7,29.717500000000006
652,22.699889173569379
1717,9074.559555074618
1720,0.5467642243600003
1721,0.22305625341898389
1722,0.3237079709410162
1723,12.566590779999992
1724,16.529618221996427
1730,13.353511821277959
1952,6.699999999999993
1953,10.710193032914415
2,1, 7, 1, 0,15, 0.00,60.00,Sunday
7,28.613333333333335
652,22.42459231163714
1717,11784.283302082917
1720,0.5467642243600003
1721,0.30528986933609639
1722,0.24147435502390364
1723,10.850596699999992
1724,15.994481202986029
1730,13.38161911898252
1952,6.699999999999993
1953,11.891026913948288
2,1, 7, 1, 0,16, 0.00,60.00,Sunday
7,28.0275
652,22.439384343723597
1717,0.0
1720,0.0
1721,0.0
1722,0.0
1723,10.850596699999992
1724,10.850596699999992
1730,13.547327396698512
1952,6.699999999999993
1953,6.699999999999993
2,1, 7, 1, 0,17, 0.00,60.00,Sunday
7,25.276666666666665
652,22.55648610079275
1717,0.0
1720,0.0
1721,0.0
1722,0.0
1723,10.850596699999992
1724,10.850596699999992
1730,14.0354517719199
1952,6.699999999999993
1953,6.699999999999993
2,1, 7, 1, 0,18, 0.00,60.00,Sunday
7,23.594999999999997
652,22.514740163620489
1717,0.0
1720,0.0
1721,0.0
1722,0.0
1723,10.850596699999992
1724,10.850596699999992
1730,14.426071289937095
1952,6.699999999999993
1953,6.699999999999993
2,1, 7, 1, 0,19, 0.00,60.00,Sunday
7,23.604999999999995
652,22.40830920922444
1717,0.0
1720,0.0
1721,0.0
1722,0.0
1723,10.850596699999992
1724,10.850596699999992
1730,13.821169250449597
1952,6.699999999999993
1953,6.699999999999993
2,1, 7, 1, 0,20, 0.00,60.00,Sunday
7,21.917500000000005
652,22.198492411193184
1717,0.0
1720,0.0
1721,0.0
1722,0.0
1723,10.850596699999992
1724,10.850596699999992
1730,12.32659025044364
1952,6.699999999999993
1953,6.699999999999993
2,1, 7, 1, 0,21, 0.00,60.00,Sunday
7,20.304999999999994
652,21.87885067891381
1717,0.0
1720,0.0
1721,0.0
1722,0.0
1723,10.850596699999992
1724,10.850596699999992
1730,12.517923270005858
1952,6.699999999999993
1953,6.699999999999993
2,1, 7, 1, 0,22, 0.00,60.00,Sunday
7,20.294999999999996
652,21.386595544764849
1717,10909.820428851926
1720,0.5467642243600003
1721,0.2819987148943157
1722,0.26476550946568436
1723,14.376420850000013
1724,19.143412623203326
1730,11.992738123307616
1952,9.818366379457773
1953,14.632548215491493
2,1, 7, 1, 0,23, 0.00,60.00,Sunday
7,20.0
652,20.80365596979537
1717,9990.317708544464
1720,0.5467642243600003
1721,0.29054906781348946
1722,0.2562151565465105
1723,13.955554689999989
1724,18.320247688732207
1730,12.215883743955093
1952,10.01977175868037
1953,14.4316491270808
2,1, 7, 1, 0,24, 0.00,60.00,Sunday
7,20.0
652,20.437353136974349
1717,13665.438176790518
1720,0.5467642243600003
1721,0.5467642243600003
1722,0.0
1723,11.770070364565648
1724,17.73662764671006
1730,11.999711775301299
1952,11.696991414563803
1953,17.73662764671006
2,2, 7, 2, 0, 1, 0.00,60.00,Monday
7,20.0
652,20.164497423527228
1717,13453.10518375014
1720,0.5467642243600003
1721,0.5467642243600003
1722,0.0
1723,11.348974096906073
1724,17.222144041097854
1730,11.999711775301299
1952,11.27143647971309
1953,17.222144041097854
2,2, 7, 2, 0, 2, 0.00,60.00,Monday
7,20.0
652,19.888619024944796
1717,13443.656048176294
1720,0.5467642243600003
1721,0.5467642243600003
1722,0.0
1723,10.860982147039192
1724,16.72920673073885
1730,11.999711775301299
1952,10.781744428430738
1953,16.72920673073885
2,2, 7, 2, 0, 3, 0.00,60.00,Monday
7,19.440833333333335
652,19.5377413168839
1717,12274.771980566524
1720,0.5467642243600003
1721,0.5160454635970979
1722,0.030718760762902126
1723,10.712915892786926
1724,16.07067975125066
1730,11.999711775301299
1952,10.3392531724913
1953,15.74947216835897
2,2, 7, 2, 0, 4, 0.00,60.00,Monday
7,19.154166666666666
652,19.075479969493736
1717,9473.40548451428
1720,0.5467642243600003
1721,0.4767480278179506
1722,0.0700161965420494
1723,11.097499429424794
1724,15.232959247038832
1730,11.999711775301299
1952,10.442927392517005
1953,14.625532954930039
2,2, 7, 2, 0, 5, 0.00,60.00,Monday
7,19.399999999999996
652,18.700953920649537
1717,7553.469291274014
1720,0.5467642243600003
1721,0.41611716135522927
1722,0.13064706300477073
1723,11.411816669431135
1724,14.709461462489707
1730,11.999711775301299
1952,10.317157168066668
1953,13.661951950634256
2,2, 7, 2, 0, 6, 0.00,60.00,Monday
7,19.399999999999996
652,18.488989735375836
1717,6646.353137831111
1720,0.5467642243600003
1721,0.38612698328174219
1722,0.16063724107825798
1723,11.5904797148196
1724,14.492252250056568
1730,11.999711775301299
1952,10.31711711711712
1953,13.266042054925768
2,2, 7, 2, 0, 7, 0.00,60.00,Monday
7,19.705
652,18.59299012730025
1717,6580.642797341306
1720,0.5467642243600003
1721,0.3791086349579631
1722,0.16765558940203688
1723,11.509772012699333
1724,14.382789620884874
1730,13.224971643780556
1952,10.17089788480649
1953,13.091066805481267
2,2, 7, 2, 0, 8, 0.00,60.00,Monday
7,21.118333333333337
652,19.594594033690599
1717,8029.908730155414
1720,0.5467642243600003
1721,0.41201034091015928
1722,0.1347538834498408
1723,10.690569959735614
1724,14.195477163323393
1730,11.411051171428513
1952,9.48373069582031
1953,13.03577815022803
2,2, 7, 2, 0, 9, 0.00,60.00,Monday
7,23.62333333333333
652,20.22534170126713
1717,8841.820682106654
1720,0.5467642243600003
1721,0.37159389633913705
1722,0.17517032802086295
1723,10.151238116104294
1724,14.009948695955112
1730,11.35795064134735
1952,8.247549536458142
1953,12.153393069184857
2,2, 7, 2, 0,10, 0.00,60.00,Monday
7,25.55916666666667
652,20.769481007725465
1717,9619.495614519301
1720,0.5467642243600003
1721,0.35045215915039998
1722,0.19631206520960013
1723,9.699130572354648
1724,13.896628993855883
1730,11.35795064134735
1952,7.274498035090321
1953,11.519122649706527
2,2, 7, 2, 0,11, 0.00,60.00,Monday
7,26.65916666666666
652,21.318743508277554
1717,10455.166619598587
1720,0.5467642243600003
1721,0.3588861758197462
1722,0.18787804854025384
1723,9.24251819925161
1724,13.803966951652438
1730,11.35795064134735
1952,6.783661685662575
1953,11.392229444816792
2,2, 7, 2, 0,12, 0.00,60.00,Monday
7,28.06416666666667
652,21.936278093450203
1717,11443.18704838879
1720,0.5467642243600003
1721,0.3924798726829199
1722,0.15428435167708036
1723,8.728577122256512
1724,13.720228403861848
1730,11.35795064134735
1952,6.699999999999993
1953,11.738762202314991
2,2, 7, 2, 0,13, 0.00,60.00,Monday
7,29.459166666666666
652,23.955348108194714
1717,13500.706533926505
1720,0.5467642243600003
1721,0.5348699737083973
1722,0.011894250651603083
1723,7.676893470297002
1724,13.563991196378846
1730,11.35795064134735
1952,7.449659444823342
1953,13.413733010033538
2,2, 7, 2, 0,14, 0.00,60.00,Monday
7,29.440833333333328
652,23.106111112067443
1717,13150.973616002826
1720,0.5467642243600003
1721,0.4861082408141747
1722,0.06065598354582535
1723,7.798844996729596
1724,13.5336785067314
1730,11.35795064134735
1952,6.986946978879332
1953,12.783234431408916
2,2, 7, 2, 0,15, 0.00,60.00,Monday
7,29.76416666666667
652,22.933874302845653
1717,12898.12693516416
1720,0.5467642243600003
1721,0.45518174733133506
1722,0.09158247702866493
1723,7.888273634721476
1724,13.513016110834104
1730,11.35795064134735
1952,6.699999999999993
1953,12.371840181905812
2,2, 7, 2, 0,16, 0.00,60.00,Monday
7,30.854166666666669
652,22.890184007450608
1717,12768.709230119264
1720,0.5467642243600003
1721,0.45208905047927847
1722,0.09467517388072146
1723,7.9230459267322399
1724,13.491414811908325
1730,11.35795064134735
1952,6.699999999999993
1953,12.315467137628359
2,2, 7, 2, 0,17, 0.00,60.00,Monday
7,30.84583333333334
652,22.699827884900477
1717,12402.422686028858
1720,0.5467642243600003
1721,0.43940272463499338
1722,0.10736149972500679
1723,8.0802290316762
1724,13.489145523076328
1730,11.35795064134735
1952,6.699999999999993
1953,12.156017215313306
2,2, 7, 2, 0,18, 0.00,60.00,Monday
7,30.59999999999997
652,24.00933543268656
1717,13497.646422980713
1720,0.5467642243600003
1721,0.5389100418482694
1722,0.00785418251173096
1723,7.4927834665512009
1724,13.378187402670342
1730,11.35795064134735
1952,7.317890579060372
1953,13.281156481105202
2,2, 7, 2, 0,19, 0.00,60.00,Monday
7,29.430833333333337
652,21.620350031270378
1717,10343.27648697153
1720,0.5467642243600003
1721,0.37386340032052098
1722,0.1729008240394791
1723,8.953901277097789
1724,13.466022186857187
1730,30.325294839291265
1952,6.75840434985526
1953,11.32146786732384
2,2, 7, 2, 0,20, 0.00,60.00,Monday
7,26.927500000000003
652,20.15000933485323
1717,8183.408688306418
1720,0.5467642243600003
1721,0.2844653458681086
1722,0.2622988784918914
1723,10.191170241273275
1724,13.762562651533438
1730,32.081441499679829
1952,6.806747806659074
1953,10.425273619731123
2,2, 7, 2, 0,21, 0.00,60.00,Monday
7,24.430833333333334
652,19.450477467461643
1717,7339.524603841255
1720,0.5467642243600003
1721,0.28778706784205018
1722,0.2589771565179497
1723,10.783779267275444
1724,13.987445491966952
1730,31.97568219759723
1952,7.805335827108237
1953,11.05614356070921
2,2, 7, 2, 0,22, 0.00,60.00,Monday
7,23.045833333333339
652,19.05185755211211
1717,6884.972692784793
1720,0.5467642243600003
1721,0.29703232483104388
1722,0.249731899528956
1723,11.120020945681509
1724,14.125569184009139
1730,21.281192688535474
1952,8.506349810575627
1953,11.559044097795914
2,2, 7, 2, 0,23, 0.00,60.00,Monday
7,22.494999999999999
652,18.850529676229927
1717,6675.192937052479
1720,0.5467642243600003
1721,0.2985188763241003
1722,0.24824534803589982
1723,11.288529307307716
1724,14.2026415473727
1730,12.495695888733355
1952,8.778611613793512
1953,11.73987217832243
2,2, 7, 2, 0,24, 0.00,60.00,Monday
7,21.640833333333334
652,18.661362940149535
1717,6416.104489970216
1720,0.5467642243600003
1721,0.3085586305721819
1722,0.23820559378781809
1723,11.446197566519248
1724,14.247328935795805
1730,11.989340453535274
1952,9.197750261159757
1953,12.046032084275608
End of Data
 Number of Records Written=        1056
