Program Version,EnergyPlus, Version 9.5.0-de239b2e5f, YMD=2021.07.16 14:32
1,5,Environment Title[],Latitude[deg],Longitude[deg],Time Zone[],Elevation[m]
2,8,Day of Simulation[],Month[],Day of Month[],DST Indicator[1=yes 0=no],Hour[],StartMinute[],EndMinute[],DayType
3,5,Cumulative Day of Simulation[],Month[],Day of Month[],DST Indicator[1=yes 0=no],DayType  ! When Daily Report Variables Requested
4,2,Cumulative Days of Simulation[],Month[]  ! When Monthly Report Variables Requested
5,1,Cumulative Days of Simulation[] ! When Run Period Report Variables Requested
6,1,Calendar Year of Simulation[] ! When Annual Report Variables Requested
7,1,Environment,Site Outdoor Air Drybulb Temperature [C] !Hourly
652,1,PERIMETER_BOT_ZN_1,Zone Mean Air Temperature [C] !Hourly
1717,1,PERI1_TOP_LOTEMP,Zone Radiant HVAC Cooling Rate [W] !Hourly
1720,1,PERI1_TOP_LOTEMP,Zone Radiant HVAC Mass Flow Rate [kg/s] !Hourly
1721,1,PERI1_TOP_LOTEMP,Zone Radiant HVAC Injection Mass Flow Rate [kg/s] !Hourly
1722,1,PERI1_TOP_LOTEMP,Zone Radiant HVAC Recirculation Mass Flow Rate [kg/s] !Hourly
1723,1,PERI1_TOP_LOTEMP,Zone Radiant HVAC Inlet Temperature [C] !Hourly
1724,1,PERI1_TOP_LOTEMP,Zone Radiant HVAC Outlet Temperature [C] !Hourly
1730,1,PERI2_TOP_LOTEMP,Zone Radiant HVAC Outlet Temperature [C] !Hourly
1952,1,PERI1_TOP_LOTEMP_CHW_INLET,System Node Temperature [C] !Hourly
1953,1,PERI1_TOP_LOTEMP_CHW_OUTLET,System Node Temperature [C] !Hourly
End of Data Dictionary
1,ATLANTA-HARTSFIELD.JACKSON.INTL.AP_GA_USA ANN HTG 99.6% CONDNS DB,  33.63, -84.43,  -5.00, 308.00
2,1, 1,21, 0, 1, 0.00,60.00,WinterDesignDay
7,-6.300000000000007
652,16.051292496802814
1717,0.0
1720,0.27529600000000006
1721,0.04281524426242808
1722,0.23248075573757194
1723,30.020167904309646
1724,28.900128674779169
1730,40.847851297250077
1952,12.200000000024913
1953,12.200000000024913
2,1, 1,21, 0, 2, 0.00,60.00,WinterDesignDay
7,-6.300000000000007
652,16.04967177145685
1717,0.0
1720,0.31462400000000009
1721,0.048944607527027967
1722,0.265679392472972
1723,30.043211981427523
1724,28.76338242859434
1730,40.847168903872098
1952,12.200000000024913
1953,12.200000000024913
2,1, 1,21, 0, 3, 0.00,60.00,WinterDesignDay
7,-6.300000000000007
652,16.049873333433469
1717,0.0
1720,0.27529600000000006
1721,0.042885961452911899
1722,0.2324100385470881
1723,30.025030187349829
1724,28.903146765888093
1730,40.84655082405357
1952,12.200000000024913
1953,12.200000000024913
2,1, 1,21, 0, 4, 0.00,60.00,WinterDesignDay
7,-6.300000000000007
652,16.049194020368377
1717,0.0
1720,0.27529600000000006
1721,0.04291860661278943
1722,0.23237739338721054
1723,30.034713336519336
1724,28.911966290478355
1730,40.845989784274717
1952,12.200000000024913
1953,12.200000000024913
2,1, 1,21, 0, 5, 0.00,60.00,WinterDesignDay
7,-6.300000000000007
652,16.049710385137435
1717,0.0
1720,0.27529600000000006
1721,0.04288610733281196
1722,0.232409892667188
1723,30.03369910955464
1724,28.9117862354823
1730,40.84547919047124
1952,12.200000000024913
1953,12.200000000024913
2,1, 1,21, 0, 6, 0.00,60.00,WinterDesignDay
7,-6.300000000000007
652,16.04868260858905
1717,0.0
1720,0.27529600000000006
1721,0.04292796580659044
1722,0.23236803419340958
1723,30.041849781197269
1724,28.91884102429573
1730,40.84501400041586
1952,12.200000000024913
1953,12.200000000024913
2,1, 1,21, 0, 7, 0.00,60.00,WinterDesignDay
7,-6.300000000000007
652,16.092909520184798
1717,0.0
1720,0.039328
1721,0.006324441658241112
1722,0.03300355834175889
1723,30.006427895501444
1724,29.83997513487344
1730,40.856344972096348
1952,12.200000000024913
1953,12.200000000024913
2,1, 1,21, 0, 8, 0.00,60.00,WinterDesignDay
7,-6.300000000000007
652,16.05122271762102
1717,0.0
1720,0.117984
1721,0.018954354716360225
1722,0.09902964528363979
1723,30.01369966641479
1724,29.514828843683764
1730,40.86430032199745
1952,12.200000000024913
1953,12.200000000024913
2,1, 1,21, 0, 9, 0.00,60.00,WinterDesignDay
7,-6.300000000000007
652,16.058710730765893
1717,0.0
1720,0.078656
1721,0.012647500816686702
1722,0.0660084991833133
1723,30.027164079181725
1724,29.694305537469693
1730,40.86644871814018
1952,12.200000000024913
1953,12.200000000024913
2,1, 1,21, 0,10, 0.00,60.00,WinterDesignDay
7,-6.300000000000007
652,16.053794298409128
1717,0.0
1720,0.117984
1721,0.018946455982614086
1722,0.0990375440173859
1723,30.01645956565109
1724,29.517855005775293
1730,40.86769094769845
1952,12.200000000024913
1953,12.200000000024913
2,1, 1,21, 0,11, 0.00,60.00,WinterDesignDay
7,-6.300000000000007
652,16.04848095332204
1717,0.0
1720,0.117984
1721,0.018975863350880846
1722,0.09900813664911916
1723,30.029779130425248
1724,29.53042249918558
1730,40.86860882256513
1952,12.200000000024913
1953,12.200000000024913
2,1, 1,21, 0,12, 0.00,60.00,WinterDesignDay
7,-6.300000000000007
652,16.053891404911579
1717,0.0
1720,0.078656
1721,0.01262186014087708
1722,0.06603413985912292
1723,30.02005702291177
1724,29.687920087021668
1730,40.869374818012797
1952,12.200000000024913
1953,12.200000000024913
2,1, 1,21, 0,13, 0.00,60.00,WinterDesignDay
7,-6.300000000000007
652,16.057687116175669
1717,0.0
1720,0.117984
1721,0.018961662948764749
1722,0.09902233705123526
1723,30.03194074665174
1724,29.532993286863026
1730,40.87004519108023
1952,12.200000000024913
1953,12.200000000024913
2,1, 1,21, 0,14, 0.00,60.00,WinterDesignDay
7,-6.300000000000007
652,16.052163085869624
1717,0.0
1720,0.117984
1721,0.018978985360011696
1722,0.09900501463998832
1723,30.03416826601497
1724,29.534767825245017
1730,40.87064133792578
1952,12.200000000024913
1953,12.200000000024913
2,1, 1,21, 0,15, 0.00,60.00,WinterDesignDay
7,-6.300000000000007
652,16.051593652584953
1717,0.0
1720,0.117984
1721,0.018952233793226328
1722,0.09903176620677368
1723,30.019674300690875
1724,29.520978777540394
1730,40.87117482313094
1952,12.200000000024913
1953,12.200000000024913
2,1, 1,21, 0,16, 0.00,60.00,WinterDesignDay
7,-6.300000000000007
652,16.05849190266736
1717,0.0
1720,0.078656
1721,0.012614663345128046
1722,0.06604133665487196
1723,30.026627110545826
1724,29.69469779944956
1730,40.87165307791413
1952,12.200000000024913
1953,12.200000000024913
2,1, 1,21, 0,17, 0.00,60.00,WinterDesignDay
7,-6.300000000000007
652,16.05733374460486
1717,0.0
1720,0.117984
1721,0.01894772976380502
1722,0.09903627023619498
1723,30.020981827984316
1724,29.52241480702198
1730,40.87208217593514
1952,12.200000000024913
1953,12.200000000024913
2,1, 1,21, 0,18, 0.00,60.00,WinterDesignDay
7,-6.300000000000007
652,16.052558928224778
1717,0.0
1720,0.117984
1721,0.01894520272526833
1722,0.09903879727473168
1723,30.03208944524781
1724,29.533594614361485
1730,40.87246756711192
1952,12.200000000024913
1953,12.200000000024913
2,1, 1,21, 0,19, 0.00,60.00,WinterDesignDay
7,-6.300000000000007
652,16.041961590605493
1717,0.0
1720,0.4326080000000001
1721,0.06767563811356901
1722,0.36493236188643099
1723,30.10789521648253
1724,28.338724410420867
1730,40.86101525428719
1952,12.200000000024913
1953,12.200000000024913
2,1, 1,21, 0,20, 0.00,60.00,WinterDesignDay
7,-6.300000000000007
652,16.045137506644087
1717,0.0
1720,0.23596800000000005
1721,0.03676693528408565
1722,0.19920106471591435
1723,30.01636687635296
1724,29.054227000668719
1730,40.85297387898963
1952,12.200000000024913
1953,12.200000000024913
2,1, 1,21, 0,21, 0.00,60.00,WinterDesignDay
7,-6.300000000000007
652,16.037761904783687
1717,0.0
1720,0.27529600000000006
1721,0.04291853065112366
1722,0.23237746934887633
1723,30.012948393460886
1724,28.889563801887936
1730,40.85075114045448
1952,12.200000000024913
1953,12.200000000024913
2,1, 1,21, 0,22, 0.00,60.00,WinterDesignDay
7,-6.300000000000007
652,16.05198722233478
1717,0.0
1720,0.31462400000000009
1721,0.048992249381614349
1722,0.2656317506183857
1723,30.05472999261917
1724,28.773819185258657
1730,40.84943731519674
1952,12.200000000024913
1953,12.200000000024913
2,1, 1,21, 0,23, 0.00,60.00,WinterDesignDay
7,-6.300000000000007
652,16.05050458968803
1717,0.0
1720,0.31462400000000009
1721,0.04896775144555288
1722,0.2656562485544471
1723,30.04898491348731
1724,28.76860072204115
1730,40.84844890398689
1952,12.200000000024913
1953,12.200000000024913
2,1, 1,21, 0,24, 0.00,60.00,WinterDesignDay
7,-6.300000000000007
652,16.052974156462726
1717,0.0
1720,0.31462400000000009
1721,0.048822173435864497
1722,0.2658018265641355
1723,30.02327572230002
1724,28.746643652439908
1730,40.84761348825653
1952,12.200000000024913
1953,12.200000000024913
1,ATLANTA-HARTSFIELD.JACKSON.INTL.AP_GA_USA ANN CLG .4% CONDNS DB=>MWB,  33.63, -84.43,  -5.00, 308.00
2,1, 7,21, 0, 1, 0.00,60.00,SummerDesignDay
7,26.32025
652,19.176554788825226
1717,10105.154792755024
1720,2.3997551999999997
1721,0.49440932592488276
1722,1.9053458740751177
1723,11.017745447883203
1724,12.022789104182884
1730,28.954107982659573
1952,6.88344961403727
1953,7.942200868819346
2,1, 7,21, 0, 2, 0.00,60.00,SummerDesignDay
7,25.84683333333334
652,19.07877981917537
1717,9960.953284388896
1720,2.3997551999999997
1721,0.5042183421121239
1722,1.8955368578878756
1723,11.099839513265913
1724,12.090564411760133
1730,29.001149870345594
1952,7.119586882741276
1953,8.164020642495645
2,1, 7,21, 0, 3, 0.00,60.00,SummerDesignDay
7,25.515125
652,19.002238183455959
1717,9819.70934790036
1720,2.3997551999999997
1721,0.5092364016329207
1722,1.8905187983670793
1723,11.16383866139253
1724,12.140533227015395
1730,29.066831282684313
1952,7.284739011941207
1953,8.31514342341526
2,1, 7,21, 0, 4, 0.00,60.00,SummerDesignDay
7,25.230124999999995
652,18.93777405988302
1717,9686.964645784941
1720,2.3997551999999997
1721,0.5133538172175916
1722,1.8864013827824089
1723,11.217679597267024
1724,12.181185880112542
1730,29.133638615027065
1952,7.425962837837838
1953,8.443179794790013
2,1, 7,21, 0, 5, 0.00,60.00,SummerDesignDay
7,24.993416666666673
652,18.88196973990621
1717,9568.10996154548
1720,2.3997551999999997
1721,0.5164273886159465
1722,1.8833278113840544
1723,11.264317896961673
1724,12.216015110473168
1730,29.19976953302788
1952,7.544027675604874
1953,8.5494362807198
2,1, 7,21, 0, 6, 0.00,60.00,SummerDesignDay
7,24.996583333333335
652,18.84379441945131
1717,9507.675405048543
1720,2.3997551999999997
1721,0.5106509153360247
1722,1.8891042846639752
1723,11.296695006581498
1724,12.242389844577986
1730,29.326143753135406
1952,7.545573915632698
1953,8.54498064334538
2,1, 7,21, 0, 7, 0.00,60.00,SummerDesignDay
7,25.42804166666666
652,19.20368541322982
1717,10786.312989610939
1720,2.3997551999999997
1721,0.5703930558853381
1722,1.8293621441146615
1723,11.003100404458613
1724,12.075886221641659
1730,30.14871587383681
1952,7.335703317964299
1953,8.46219650833365
2,1, 7,21, 0, 8, 0.00,60.00,SummerDesignDay
7,26.575958333333334
652,19.429060223640755
1717,11073.960221035995
1720,2.3997551999999997
1721,0.546403492677578
1722,1.853351707322422
1723,10.813123572519079
1724,11.914458209934173
1730,30.200197938881727
1952,6.840959799294429
1953,7.995998887788377
2,1, 7,21, 0, 9, 0.00,60.00,SummerDesignDay
7,28.287541666666664
652,19.757522348937177
1717,11951.011545480696
1720,2.3997551999999997
1721,0.593001778554932
1722,1.806753421445068
1723,10.540307140790583
1724,11.72877383051545
1730,30.200197938881727
1952,6.699999999999995
1953,7.942166944989248
2,1, 7,21, 0,10, 0.00,60.00,SummerDesignDay
7,29.995958333333328
652,20.151085452345784
1717,12994.16652522087
1720,2.3997551999999997
1721,0.672437836765025
1722,1.7273173632349753
1723,10.213888813680607
1724,11.505970597685746
1730,30.200197938881727
1952,6.699999999999993
1953,8.045777020069007
2,1, 7,21, 0,11, 0.00,60.00,SummerDesignDay
7,31.514374999999995
652,20.70195254036082
1717,14570.43590356736
1720,2.3997551999999997
1721,0.8011242543910216
1722,1.598630945608978
1723,9.756766509434869
1724,11.205378095523792
1730,30.200197938881727
1952,6.699999999999993
1953,8.202299171540048
2,1, 7,21, 0,12, 0.00,60.00,SummerDesignDay
7,32.697916666666667
652,21.29110756247001
1717,16062.22166408121
1720,2.3997551999999997
1721,0.9526291650850056
1722,1.4471260349149946
1723,9.264974298360361
1724,10.86163989597832
1730,30.200197938881727
1952,6.699999999999993
1953,8.350344365313568
2,1, 7,21, 0,13, 0.00,60.00,SummerDesignDay
7,33.55133333333333
652,21.750254413400357
1717,16971.574553487397
1720,2.3997551999999997
1721,1.0807640966958652
1722,1.318991103304135
1723,8.879850639431048
1724,10.566694689308154
1730,30.200197938881727
1952,6.699999999999993
1953,8.440515914300338
2,1, 7,21, 0,14, 0.00,60.00,SummerDesignDay
7,34.16645833333333
652,22.001048121077419
1717,17194.383328741897
1720,2.3997551999999997
1721,1.150534534620058
1722,1.249220665379942
1723,8.667690380224647
1724,10.376559366747453
1730,30.200197938881727
1952,6.699999999999993
1953,8.462537048760425
2,1, 7,21, 0,15, 0.00,60.00,SummerDesignDay
7,34.40000000000004
652,22.01292007485546
1717,16741.683507822578
1720,2.3997551999999997
1721,1.1391444748647635
1722,1.260610725135237
1723,8.654410249988013
1724,10.318279925600605
1730,30.200197938881727
1952,6.699999999999993
1953,8.41753749992402
2,1, 7,21, 0,16, 0.00,60.00,SummerDesignDay
7,34.110250000000018
652,21.797294645194527
1717,15769.367595147216
1720,2.3997551999999997
1721,1.0521040938113762
1722,1.347651106188624
1723,8.831335520609202
1724,10.398663694257073
1730,30.200197938881727
1952,6.699999999999993
1953,8.320999168559152
2,1, 7,21, 0,17, 0.00,60.00,SummerDesignDay
7,33.44366666666667
652,21.456037799396698
1717,14735.461128962539
1720,2.3997551999999997
1721,0.9395757842750052
1722,1.460179415724995
1723,9.11515832867254
1724,10.579864743264015
1730,30.200197938881727
1952,6.699999999999993
1953,8.218382496609646
2,1, 7,21, 0,18, 0.00,60.00,SummerDesignDay
7,32.58708333333333
652,21.110911533358128
1717,13905.400112495898
1720,2.3997551999999997
1721,0.8439635914999251
1722,1.5557916085000743
1723,9.402732905954532
1724,10.785063900274544
1730,30.200197938881727
1952,6.699999999999993
1953,8.136012231654819
2,1, 7,21, 0,19, 0.00,60.00,SummerDesignDay
7,31.395624999999997
652,20.749793009671394
1717,13036.847825780682
1720,2.3997551999999997
1721,0.7538144211716124
1722,1.6459407788283882
1723,9.703235209243023
1724,10.999353574370924
1730,30.200197938881727
1952,6.699999999999993
1953,8.049804990599533
2,1, 7,21, 0,20, 0.00,60.00,SummerDesignDay
7,30.16379166666667
652,20.433922121841868
1717,12455.223400804613
1720,2.3997551999999997
1721,0.6882483739983483
1722,1.7115068260016518
1723,9.967961279618376
1724,11.206363832885707
1730,30.200197938881727
1952,6.699999999999993
1953,7.9920938854287029
2,1, 7,21, 0,21, 0.00,60.00,SummerDesignDay
7,29.215374999999999
652,20.162169752303467
1717,11932.062612689562
1720,2.3997551999999997
1721,0.6358524319944615
1722,1.7639027680055384
1723,10.194876528157966
1724,11.381341943713503
1730,30.200197938881727
1952,6.699999999999993
1953,7.940160359266486
2,1, 7,21, 0,22, 0.00,60.00,SummerDesignDay
7,28.360375
652,19.95657217115033
1717,11581.994006537872
1720,2.3997551999999997
1721,0.6003569563040464
1722,1.7993982436959538
1723,10.367056815619892
1724,11.518770004138146
1730,30.200197938881727
1952,6.699999999999993
1953,7.905410779643327
2,1, 7,21, 0,23, 0.00,60.00,SummerDesignDay
7,27.60195833333334
652,19.494505564699517
1717,10238.756202613951
1720,2.3997551999999997
1721,0.5080058031366321
1722,1.8917493968633684
1723,10.747762811874745
1724,11.766015126773276
1730,28.76823835248755
1952,6.699999999999993
1953,7.771955760768292
2,1, 7,21, 0,24, 0.00,60.00,SummerDesignDay
7,26.936958333333334
652,19.314540109155489
1717,10310.368507463656
1720,2.3997551999999997
1721,0.4955964295542036
1722,1.9041587704457964
1723,10.902749175431277
1724,11.928169334444503
1730,28.65058582706749
1952,6.7027041521533159
1953,7.7818301407619379
1,RUNPERIOD 1,  33.63, -84.43,  -5.00, 308.00
2,1, 7, 1, 0, 1, 0.00,60.00,Sunday
7,21.118333333333337
652,17.970667698894187
1717,6058.0330221885919
1720,0.3999592
1721,0.3880115312922296
1722,0.011947668707770346
1723,9.793309232110039
1724,10.395614421552157
1730,11.99047293086009
1952,9.59657475643748
1953,10.207827607488984
2,1, 7, 1, 0, 2, 0.00,60.00,Sunday
7,22.098333333333334
652,17.97226191978704
1717,5735.462665892539
1720,0.4399551200000001
1721,0.3099442973706046
1722,0.1300108226293954
1723,10.340258353333342
1724,10.910592082665286
1730,11.99047293086009
1952,8.983565524589507
1953,9.563743802215635
2,1, 7, 1, 0, 3, 0.00,60.00,Sunday
7,21.949166666666675
652,17.985004068916959
1717,5339.223519848369
1720,0.3999592
1721,0.2809893600720302
1722,0.11896983992796977
1723,10.4634718595
1724,10.994419616017959
1730,11.99047293086009
1952,9.046764421171997
1953,9.586662036767585
2,1, 7, 1, 0, 4, 0.00,60.00,Sunday
7,21.79833333333333
652,17.971621854062268
1717,5362.786759408892
1720,0.35996328
1721,0.2922584817943597
1722,0.06770479820564029
1723,10.0234367145
1724,10.556656095262195
1730,11.99047293086009
1952,9.115159287760687
1953,9.656432460661075
2,1, 7, 1, 0, 5, 0.00,60.00,Sunday
7,21.700000000000025
652,17.98186974890126
1717,5710.591650541046
1720,0.5199469600000001
1721,0.3014557159724007
1722,0.21849124402759927
1723,11.084747122666661
1724,11.652737596221787
1730,11.99047293086009
1952,9.175864064850716
1953,9.755491666303028
2,1, 7, 1, 0, 6, 0.00,60.00,Sunday
7,21.954166666666663
652,17.976135109143326
1717,6948.780033642307
1720,0.4799510400000001
1721,0.38278936509801556
1722,0.09716167490198437
1723,10.0
1724,10.690913950678857
1730,13.05465213630252
1952,9.08150464016014
1953,9.783156980356596
2,1, 7, 1, 0, 7, 0.00,60.00,Sunday
7,22.200000000000025
652,17.985882354670765
1717,8183.411222468566
1720,0.6399347200000001
1721,0.481611927340413
1722,0.15832279265958705
1723,10.0
1724,10.81367275268056
1730,14.196738840799084
1952,8.930857356602607
1953,9.758847961973288
2,1, 7, 1, 0, 8, 0.00,60.00,Sunday
7,23.31833333333333
652,17.976870496420309
1717,10516.587049617305
1720,0.6799306400000001
1721,0.6799306400000001
1722,0.0
1723,8.527665482600592
1724,9.572800801238062
1730,14.299425000095841
1952,8.46650739782357
1953,9.52684213745976
2,1, 7, 1, 0, 9, 0.00,60.00,Sunday
7,25.823333333333335
652,17.991681285995825
1717,14302.166576790574
1720,1.0798898400000004
1721,0.8704474387063568
1722,0.20944240129364342
1723,7.9737012900000059
1724,9.394797108569746
1730,14.962862580719506
1952,7.231364017189548
1953,8.676604868755398
2,1, 7, 1, 0,10, 0.00,60.00,Sunday
7,27.759166666666667
652,18.132164020609463
1717,12216.420255729485
1720,2.1997756000000008
1721,0.7505978702830806
1722,1.4491777297169196
1723,9.286806361666665
1724,10.501238418205958
1730,14.451173349982005
1952,6.700005206873233
1953,7.963645120984803
2,1, 7, 1, 0,11, 0.00,60.00,Sunday
7,29.164166666666668
652,18.97814807870281
1717,3321.1261771455726
1720,1.7998164000000008
1721,0.1543116104324957
1722,1.6455047895675037
1723,11.956586030000008
1724,12.286989153585824
1730,13.407703717587868
1952,6.699999999999993
1953,7.070694656612501
2,1, 7, 1, 0,12, 0.00,60.00,Sunday
7,30.0
652,19.621518786095959
1717,16421.471359121537
1720,2.3997551999999997
1721,0.8734346950937284
1722,1.5263205049062725
1723,9.677241509999997
1724,11.309844708648053
1730,13.50477654054578
1952,6.699999999999993
1953,8.386289357944629
2,1, 7, 1, 0,13, 0.00,60.00,Sunday
7,30.86416666666667
652,20.48599275172858
1717,1802.092203781299
1720,1.2398735200000005
1721,0.07087546594202823
1722,1.168998054057972
1723,13.30512976
1724,13.48448067397297
1730,13.298840234144177
1952,6.699999999999993
1953,6.907118030934835
2,1, 7, 1, 0,14, 0.00,60.00,Sunday
7,29.717500000000006
652,20.642307772617526
1717,13267.789413077562
1720,2.3997551999999997
1721,0.5254898660067213
1722,1.8742653339932787
1723,11.637616630000017
1724,12.957445591102524
1730,13.355829443386585
1952,6.699999999999993
1953,8.07354609639959
2,1, 7, 1, 0,15, 0.00,60.00,Sunday
7,28.613333333333335
652,19.468211656543155
1717,27722.83129908873
1720,2.3997551999999997
1721,2.3997551999999997
1722,0.0
1723,6.753627587703494
1724,9.507109737212329
1730,13.383792039271406
1952,6.699999999999993
1953,9.507109737212329
2,1, 7, 1, 0,16, 0.00,60.00,Sunday
7,28.0275
652,19.251553230481894
1717,284.84238087847367
1720,0.4399551200000001
1721,0.015569661084816854
1722,0.4243854589151831
1723,12.403931250000019
1724,12.432272502472843
1730,13.549304715508802
1952,6.699999999999993
1953,6.738191556301055
2,1, 7, 1, 0,17, 0.00,60.00,Sunday
7,25.276666666666665
652,19.688476932007597
1717,1853.1444836737217
1720,1.4398531200000007
1721,0.08185791475351143
1722,1.3579952052464888
1723,13.73179404999999
1724,13.916248432357119
1730,14.037236989591703
1952,7.25104517694899
1953,7.466778961871351
2,1, 7, 1, 0,18, 0.00,60.00,Sunday
7,23.594999999999997
652,19.46013348169454
1717,9304.690407954882
1720,2.3997551999999997
1721,0.42649824255526949
1722,1.973256957444731
1723,12.811112559999998
1724,13.737018839755914
1730,14.427884858996637
1952,8.233382334380553
1953,9.213023813175518
2,1, 7, 1, 0,19, 0.00,60.00,Sunday
7,23.604999999999995
652,19.171916874186885
1717,5799.39787061624
1720,2.3997551999999997
1721,0.2589666640851179
1722,2.140788535914882
1723,13.49130868999999
1724,14.068517121006734
1730,13.823200753305807
1952,8.2384173912346
1953,8.869371497171296
2,1, 7, 1, 0,20, 0.00,60.00,Sunday
7,21.917500000000005
652,18.55679441964047
1717,12449.699583884776
1720,2.3997551999999997
1721,0.7818239490856254
1722,1.6179312509143742
1723,11.783820959999995
1724,13.022321351093734
1730,12.328984488568949
1952,9.03786045854592
1953,10.330080235130398
2,1, 7, 1, 0,21, 0.00,60.00,Sunday
7,20.304999999999994
652,17.981518914052765
1717,6027.745677296258
1720,0.5999388000000001
1721,0.5901033196188817
1722,0.009835480381118145
1723,10.016911494676143
1724,10.616251446779217
1730,12.51845273969087
1952,9.90235735193398
1953,10.515120290934045
2,1, 7, 1, 0,22, 0.00,60.00,Sunday
7,20.294999999999996
652,17.986937830449379
1717,4566.748462284917
1720,0.5999388000000001
1721,0.31117379356925847
1722,0.28876500643074157
1723,11.411544102000005
1724,11.865829774027472
1730,11.990887472751494
1952,9.853286048941609
1953,10.321001093361753
2,1, 7, 1, 0,23, 0.00,60.00,Sunday
7,20.0
652,17.97484860493613
1717,5511.734664829905
1720,0.3999592
1721,0.3999592
1722,0.0
1723,10.311223127058187
1724,10.859263774604172
1730,11.990887472751494
1952,10.018753415513418
1953,10.575742720990729
2,1, 7, 1, 0,24, 0.00,60.00,Sunday
7,20.0
652,17.972927901338826
1717,5157.800151122161
1720,0.35996328
1721,0.35996328
1722,0.0
1723,10.073511679176445
1724,10.586360129427862
1730,11.990887472751494
1952,10.019819766742252
1953,10.540722009131864
2,2, 7, 2, 0, 1, 0.00,60.00,Monday
7,20.0
652,17.99349416311763
1717,5708.084334177526
1720,0.7599224800000002
1721,0.3718922156184431
1722,0.388030264381557
1723,11.835054159230403
1724,12.402930621307645
1730,11.990887472751494
1952,10.019819819816697
1953,10.604708446952753
2,2, 7, 2, 0, 2, 0.00,60.00,Monday
7,20.0
652,17.988865240911414
1717,5434.632132841472
1720,0.7199265600000001
1721,0.353203949135361
1722,0.3667226108646389
1723,11.995867571788829
1724,12.536539152338433
1730,11.990887472751494
1952,10.019819819819825
1953,10.576608185028297
2,2, 7, 2, 0, 3, 0.00,60.00,Monday
7,19.440833333333335
652,17.988040199617108
1717,4874.983288213698
1720,0.5999388000000001
1721,0.3240152963288635
1722,0.27592350367113657
1723,11.997106480433253
1724,12.482101112357166
1730,11.990887472751494
1952,10.251804840555002
1953,10.750230138909059
2,2, 7, 2, 0, 4, 0.00,60.00,Monday
7,19.154166666666666
652,17.986216452083139
1717,5205.986951441411
1720,0.5999388000000001
1721,0.351651034075714
1722,0.24828776592428609
1723,11.99760877328854
1724,12.515533779012039
1730,11.990887472751494
1952,10.456711719679208
1953,10.988067392094706
2,2, 7, 2, 0, 5, 0.00,60.00,Monday
7,19.399999999999996
652,17.9848399130537
1717,4339.024589477301
1720,0.4799510400000001
1721,0.27643223151153387
1722,0.20351880848846619
1723,11.995992257206547
1724,12.427666023129247
1730,11.990887472751494
1952,10.318789574804303
1953,10.761207867625389
2,2, 7, 2, 0, 6, 0.00,60.00,Monday
7,19.399999999999996
652,17.988534253285925
1717,5430.780965338087
1720,0.5999388000000001
1721,0.34568346551778769
1722,0.25425533448221229
1723,11.99500845509366
1724,12.535297069812089
1730,11.990887472751494
1952,10.317117121105886
1953,10.87083639385632
2,2, 7, 2, 0, 7, 0.00,60.00,Monday
7,19.705
652,18.010648364266609
1717,10217.316235298436
1720,1.6398327200000007
1721,0.7609811081595896
1722,0.8788516118404102
1723,11.988314863846126
1724,13.004795038543368
1730,13.217635926198023
1952,10.17577099894224
1953,11.228961527535745
2,2, 7, 2, 0, 8, 0.00,60.00,Monday
7,21.118333333333337
652,18.916540121572969
1717,12302.505597681635
1720,2.3997551999999997
1721,1.0246081539203059
1722,1.3751470460796942
1723,11.254795208803336
1724,12.478468523951698
1730,11.401443935053912
1952,9.48373072640853
1953,10.761115286985417
2,2, 7, 2, 0, 9, 0.00,60.00,Monday
7,23.62333333333333
652,19.181985029270419
1717,10492.822015534037
1720,2.3997551999999997
1721,0.6959327783171794
1722,1.7038224216828207
1723,11.015951472005004
1724,12.059550134677405
1730,11.348279224868396
1952,8.247549536458142
1953,9.344855770058868
2,2, 7, 2, 0,10, 0.00,60.00,Monday
7,25.55916666666667
652,19.630480748536387
1717,11581.264075626625
1720,2.3997551999999997
1721,0.6393039774832307
1722,1.7604512225167697
1723,10.647352401201197
1724,11.799084811582473
1730,11.348279224868396
1952,7.27449803509032
1953,8.479932347024926
2,2, 7, 2, 0,11, 0.00,60.00,Monday
7,26.65916666666666
652,20.113037678479207
1717,12753.898398012816
1720,2.3997551999999997
1721,0.6705670901433076
1722,1.7291881098566926
1723,10.246335635616326
1724,11.514537890905667
1730,11.348279224868396
1952,6.783661685662575
1953,8.105559675932069
2,2, 7, 2, 0,12, 0.00,60.00,Monday
7,28.06416666666667
652,20.661770212689026
1717,14118.249111900366
1720,2.3997551999999997
1721,0.7791660640521907
1722,1.620589135947809
1723,9.789624002918276
1724,11.193294402622826
1730,11.348279224868396
1952,6.699999999999993
1953,8.157358571721339
2,2, 7, 2, 0,13, 0.00,60.00,Monday
7,29.459166666666666
652,22.764230890617378
1717,20500.36348100741
1720,2.3997551999999997
1721,1.4897828980572133
1722,0.9099723019427871
1723,8.060220166011233
1724,10.097236613931699
1730,11.348279224868396
1952,6.699999999999993
1953,8.790673627427403
2,2, 7, 2, 0,14, 0.00,60.00,Monday
7,29.440833333333328
652,21.562746263039935
1717,13303.350064762248
1720,2.3997551999999997
1721,0.9156909068349128
1722,1.4840642931650876
1723,9.00770374966051
1724,10.330001948903464
1730,11.348279224868396
1952,6.699999999999993
1953,8.075972355687507
2,2, 7, 2, 0,15, 0.00,60.00,Monday
7,29.76416666666667
652,21.440628157674646
1717,14527.08913021493
1720,2.3997551999999997
1721,0.9269557156657279
1722,1.4727994843342714
1723,9.133114132909798
1724,10.577117566636052
1730,11.348279224868396
1952,6.699999999999993
1953,8.197679837540346
2,2, 7, 2, 0,16, 0.00,60.00,Monday
7,30.854166666666669
652,21.41460301249118
1717,14616.308962325811
1720,2.3997551999999997
1721,0.9257016546540368
1722,1.4740535453459636
1723,9.15289800214507
1724,10.605779469682993
1730,11.348279224868396
1952,6.699999999999993
1953,8.20655822602511
2,2, 7, 2, 0,17, 0.00,60.00,Monday
7,30.84583333333334
652,21.244083034454044
1717,14033.352269080639
1720,2.3997551999999997
1721,0.8717364069586857
1722,1.5280187930413143
1723,9.29365475333954
1724,10.688654942501906
1730,11.348279224868396
1952,6.699999999999993
1953,8.148679470932244
2,2, 7, 2, 0,18, 0.00,60.00,Monday
7,30.59999999999997
652,22.75453879527702
1717,19073.760854065153
1720,2.3997551999999997
1721,1.4422082940991395
1722,0.9575469059008611
1723,8.06034580992523
1724,9.955605952039918
1730,11.348279224868396
1952,6.699999999999993
1953,8.648917323555326
2,2, 7, 2, 0,19, 0.00,60.00,Monday
7,29.430833333333337
652,20.172327415442493
1717,7681.274538414075
1720,2.3997551999999997
1721,0.479194984596352
1722,1.9205602154036477
1723,10.146876662311638
1724,10.910624604742042
1730,30.32217472718008
1952,6.699999999999993
1953,7.51744173912318
2,2, 7, 2, 0,20, 0.00,60.00,Monday
7,26.927500000000003
652,18.923220524920429
1717,7128.863578616226
1720,2.3997551999999997
1721,0.35805371869830895
1722,2.041701481301691
1723,11.21603739629399
1724,11.925103955600634
1730,32.079087240245758
1952,6.806747806659074
1953,7.569525014981652
2,2, 7, 2, 0,21, 0.00,60.00,Monday
7,24.430833333333334
652,18.37892895623552
1717,7345.156972577166
1720,2.3997551999999997
1721,0.4097919732719034
1722,1.9899632267280967
1723,11.678246016346549
1724,12.408922494500854
1730,31.97377301352923
1952,7.805335827108237
1953,8.58973006581895
2,2, 7, 2, 0,22, 0.00,60.00,Monday
7,23.045833333333339
652,18.065481187390995
1717,7245.680171990111
1720,2.3997551999999997
1721,0.44713390948373
1722,1.95262129051627
1723,11.942918653983062
1724,12.663754326833646
1730,21.279679285986285
1952,8.506349810575625
1953,9.280907317059539
2,2, 7, 2, 0,23, 0.00,60.00,Monday
7,22.494999999999999
652,18.002221640012669
1717,5679.485974204968
1720,1.3598612800000006
1721,0.33839856560146555
1722,1.0214627143985345
1723,11.99576602322896
1724,12.56079726513905
1730,12.578173516472298
1952,8.771503550212105
1953,9.366977611129859
2,2, 7, 2, 0,24, 0.00,60.00,Monday
7,21.640833333333334
652,17.99460239160852
1717,5071.6391538905459
1720,0.9199061600000003
1721,0.3049803936466671
1722,0.6149257663533327
1723,11.997116433058617
1724,12.501675463830818
1730,11.999195524803904
1952,9.173556224790305
1953,9.698708936514722
End of Data
 Number of Records Written=        1056
