Program Version,EnergyPlus, Version 9.4.0-998c4b761e, YMD=2021.07.14 16:39
1,5,Environment Title[],Latitude[deg],Longitude[deg],Time Zone[],Elevation[m]
2,8,Day of Simulation[],Month[],Day of Month[],DST Indicator[1=yes 0=no],Hour[],StartMinute[],EndMinute[],DayType
3,5,Cumulative Day of Simulation[],Month[],Day of Month[],DST Indicator[1=yes 0=no],DayType  ! When Daily Meters Requested
4,2,Cumulative Days of Simulation[],Month[]  ! When Monthly Meters Requested
5,1,Cumulative Days of Simulation[] ! When Run Period Meters Requested
6,1,Calendar Year of Simulation[] ! When Annual Meters Requested
59,1,Electricity:Facility [J] !Hourly
1716,1,ElectricityNet:Facility [J] !Hourly
95,1,InteriorLights:Electricity [J] !Hourly
512,1,InteriorEquipment:Electricity [J] !Hourly
End of Data Dictionary
1,ATLANTA-HARTSFIELD.JACKSON.INTL.AP_GA_USA ANN HTG 99.6% CONDNS DB,  30.58, -96.37,  -6.00,  96.00
2,1, 1,21, 0, 1, 0.00,60.00,WinterDesignDay
59,116887722.38926643
95,0.0
512,0.0
1716,116887722.38926643
2,1, 1,21, 0, 2, 0.00,60.00,WinterDesignDay
59,116887722.38926643
95,0.0
512,0.0
1716,116887722.38926643
2,1, 1,21, 0, 3, 0.00,60.00,WinterDesignDay
59,116887722.38926643
95,0.0
512,0.0
1716,116887722.38926643
2,1, 1,21, 0, 4, 0.00,60.00,WinterDesignDay
59,116887722.38926643
95,0.0
512,0.0
1716,116887722.38926643
2,1, 1,21, 0, 5, 0.00,60.00,WinterDesignDay
59,116887722.38926643
95,0.0
512,0.0
1716,116887722.38926643
2,1, 1,21, 0, 6, 0.00,60.00,WinterDesignDay
59,116887722.38926643
95,0.0
512,0.0
1716,116887722.38926643
2,1, 1,21, 0, 7, 0.00,60.00,WinterDesignDay
59,127247982.38926645
95,0.0
512,0.0
1716,127247982.38926645
2,1, 1,21, 0, 8, 0.00,60.00,WinterDesignDay
59,116565522.38926645
95,0.0
512,0.0
1716,116565522.38926645
2,1, 1,21, 0, 9, 0.00,60.00,WinterDesignDay
59,108396582.38926643
95,0.0
512,0.0
1716,108396582.38926643
2,1, 1,21, 0,10, 0.00,60.00,WinterDesignDay
59,108396582.38926643
95,0.0
512,0.0
1716,108396582.38926643
2,1, 1,21, 0,11, 0.00,60.00,WinterDesignDay
59,108396582.38926643
95,0.0
512,0.0
1716,108396582.38926643
2,1, 1,21, 0,12, 0.00,60.00,WinterDesignDay
59,108396582.38926643
95,0.0
512,0.0
1716,108396582.38926643
2,1, 1,21, 0,13, 0.00,60.00,WinterDesignDay
59,108396582.38926643
95,0.0
512,0.0
1716,108396582.38926643
2,1, 1,21, 0,14, 0.00,60.00,WinterDesignDay
59,108396582.38926643
95,0.0
512,0.0
1716,108396582.38926643
2,1, 1,21, 0,15, 0.00,60.00,WinterDesignDay
59,108396582.38926643
95,0.0
512,0.0
1716,108396582.38926643
2,1, 1,21, 0,16, 0.00,60.00,WinterDesignDay
59,108396582.38926643
95,0.0
512,0.0
1716,108396582.38926643
2,1, 1,21, 0,17, 0.00,60.00,WinterDesignDay
59,108396582.38926643
95,0.0
512,0.0
1716,108396582.38926643
2,1, 1,21, 0,18, 0.00,60.00,WinterDesignDay
59,112795242.38926643
95,0.0
512,0.0
1716,112795242.38926643
2,1, 1,21, 0,19, 0.00,60.00,WinterDesignDay
59,127247982.38926645
95,0.0
512,0.0
1716,127247982.38926645
2,1, 1,21, 0,20, 0.00,60.00,WinterDesignDay
59,119433102.38926645
95,0.0
512,0.0
1716,119433102.38926643
2,1, 1,21, 0,21, 0.00,60.00,WinterDesignDay
59,119433102.38926645
95,0.0
512,0.0
1716,119433102.38926643
2,1, 1,21, 0,22, 0.00,60.00,WinterDesignDay
59,119433102.38926645
95,0.0
512,0.0
1716,119433102.38926643
2,1, 1,21, 0,23, 0.00,60.00,WinterDesignDay
59,119433102.38926645
95,0.0
512,0.0
1716,119433102.38926643
2,1, 1,21, 0,24, 0.00,60.00,WinterDesignDay
59,119433102.38926645
95,0.0
512,0.0
1716,119433102.38926643
1,ATLANTA-HARTSFIELD.JACKSON.INTL.AP_GA_USA ANN CLG .4% CONDNS DB=>MWB,  30.58, -96.37,  -6.00,  96.00
2,1, 7,21, 0, 1, 0.00,60.00,SummerDesignDay
59,515684587.58599737
95,152517470.7542746
512,224813060.55296675
1716,515684587.58599737
2,1, 7,21, 0, 2, 0.00,60.00,SummerDesignDay
59,519140818.7899704
95,152517470.7542746
512,224813060.55296675
1716,519140818.7899704
2,1, 7,21, 0, 3, 0.00,60.00,SummerDesignDay
59,519416818.7899704
95,152517470.7542746
512,224813060.55296675
1716,519416818.7899704
2,1, 7,21, 0, 4, 0.00,60.00,SummerDesignDay
59,519500818.7899704
95,152517470.7542746
512,224813060.55296675
1716,519500818.7899704
2,1, 7,21, 0, 5, 0.00,60.00,SummerDesignDay
59,519620818.7899704
95,152517470.7542746
512,224813060.55296675
1716,519620818.7899704
2,1, 7,21, 0, 6, 0.00,60.00,SummerDesignDay
59,515993617.2879425
95,151690649.25224645
512,224813060.55296675
1716,515993617.2879425
2,1, 7,21, 0, 7, 0.00,60.00,SummerDesignDay
59,479006544.59896656
95,126362702.63622755
512,224813060.55296675
1716,479006544.59896656
2,1, 7,21, 0, 8, 0.00,60.00,SummerDesignDay
59,474722326.5355368
95,120208349.70381399
512,224813060.55296675
1716,474722326.5355368
2,1, 7,21, 0, 9, 0.00,60.00,SummerDesignDay
59,461640237.4205027
95,119991185.40467149
512,224813060.55296675
1716,461640237.4205027
2,1, 7,21, 0,10, 0.00,60.00,SummerDesignDay
59,461640237.4205027
95,119991185.40467149
512,224813060.55296675
1716,461640237.4205027
2,1, 7,21, 0,11, 0.00,60.00,SummerDesignDay
59,461664237.4205027
95,119991185.40467149
512,224813060.55296675
1716,461664237.4205027
2,1, 7,21, 0,12, 0.00,60.00,SummerDesignDay
59,461640237.4205027
95,119991185.40467149
512,224813060.55296675
1716,461640237.4205027
2,1, 7,21, 0,13, 0.00,60.00,SummerDesignDay
59,461640237.4205027
95,119991185.40467149
512,224813060.55296675
1716,461640237.4205027
2,1, 7,21, 0,14, 0.00,60.00,SummerDesignDay
59,461724237.4205027
95,119991185.40467149
512,224813060.55296675
1716,461724237.4205027
2,1, 7,21, 0,15, 0.00,60.00,SummerDesignDay
59,461742237.4205027
95,119991185.40467149
512,224813060.55296675
1716,461742237.4205027
2,1, 7,21, 0,16, 0.00,60.00,SummerDesignDay
59,461676237.4205027
95,119991185.40467149
512,224813060.55296675
1716,461676237.4205027
2,1, 7,21, 0,17, 0.00,60.00,SummerDesignDay
59,461754237.4205027
95,119991185.40467149
512,224813060.55296675
1716,461754237.4205027
2,1, 7,21, 0,18, 0.00,60.00,SummerDesignDay
59,461864663.6264813
95,120173611.6106496
512,224813060.55296675
1716,461864663.6264813
2,1, 7,21, 0,19, 0.00,60.00,SummerDesignDay
59,467273252.26487246
95,125624200.24904058
512,224813060.55296675
1716,467273252.26487246
2,1, 7,21, 0,20, 0.00,60.00,SummerDesignDay
59,499741993.16928026
95,151287087.15344776
512,224813060.55296675
1716,499741993.16928026
2,1, 7,21, 0,21, 0.00,60.00,SummerDesignDay
59,505203042.7701071
95,152517470.7542746
512,224813060.55296675
1716,505203042.7701071
2,1, 7,21, 0,22, 0.00,60.00,SummerDesignDay
59,505203042.7701071
95,152517470.7542746
512,224813060.55296675
1716,505203042.7701071
2,1, 7,21, 0,23, 0.00,60.00,SummerDesignDay
59,505203042.7701071
95,152517470.7542746
512,224813060.55296675
1716,505203042.7701071
2,1, 7,21, 0,24, 0.00,60.00,SummerDesignDay
59,505203042.7701071
95,152517470.7542746
512,224813060.55296675
1716,505203042.7701071
1,RUNPERIOD 1,  30.58, -96.37,  -6.00,  96.00
2,1, 7, 1, 0, 1, 0.00,60.00,Monday
59,68919475.00681333
95,7625873.53771374
512,44533202.00181081
1716,68919475.00681333
2,1, 7, 1, 0, 2, 0.00,60.00,Monday
59,72315993.61099114
95,7625873.53771374
512,44533202.00181081
1716,72315993.61099114
2,1, 7, 1, 0, 3, 0.00,60.00,Monday
59,77779216.55473307
95,7625873.53771374
512,44533202.00181081
1716,77779216.55473307
2,1, 7, 1, 0, 4, 0.00,60.00,Monday
59,77876420.55189292
95,7625873.53771374
512,44533202.00181081
1716,77876420.55189292
2,1, 7, 1, 0, 5, 0.00,60.00,Monday
59,84110781.67535752
95,7625873.53771374
512,44533202.00181081
1716,84110781.67535752
2,1, 7, 1, 0, 6, 0.00,60.00,Monday
59,91878388.17485404
95,15092791.254729994
512,44533202.00181081
1716,91878388.17485404
2,1, 7, 1, 0, 7, 0.00,60.00,Monday
59,99241681.75761889
95,11112430.75318237
512,55180531.87831209
1716,99241681.7576189
2,1, 7, 1, 0, 8, 0.00,60.00,Monday
59,257025002.01758445
95,31191592.322054026
512,95796493.41677362
1716,257025002.0175841
2,1, 7, 1, 0, 9, 0.00,60.00,Monday
59,415552075.4109382
95,93124323.85391505
512,204227663.7591696
1716,415552075.4109382
2,1, 7, 1, 0,10, 0.00,60.00,Monday
59,384016121.9330919
95,93124323.85391505
512,174055806.61631225
1716,384016121.9330919
2,1, 7, 1, 0,11, 0.00,60.00,Monday
59,377053385.6693563
95,93124323.85391505
512,167093070.3525762
1716,377053385.6693563
2,1, 7, 1, 0,12, 0.00,60.00,Monday
59,384016121.9330919
95,93124323.85391505
512,174055806.61631225
1716,384016121.9330919
2,1, 7, 1, 0,13, 0.00,60.00,Monday
59,387969829.62285509
95,93124323.85391505
512,177667514.30607493
1716,387969829.62285509
2,1, 7, 1, 0,14, 0.00,60.00,Monday
59,389842402.1528722
95,93124323.85391505
512,179858086.83609239
1716,389842402.15287217
2,1, 7, 1, 0,15, 0.00,60.00,Monday
59,377053385.6693563
95,93124323.85391505
512,167093070.3525762
1716,377053385.6693563
2,1, 7, 1, 0,16, 0.00,60.00,Monday
59,377053385.6693563
95,93124323.85391505
512,167093070.3525762
1716,377053385.6693563
2,1, 7, 1, 0,17, 0.00,60.00,Monday
59,387629490.0649598
95,93124323.85391505
512,177537174.74818046
1716,387629490.0649598
2,1, 7, 1, 0,18, 0.00,60.00,Monday
59,309925221.01013866
95,51817289.974108669
512,140923939.57316477
1716,309925221.01013866
2,1, 7, 1, 0,19, 0.00,60.00,Monday
59,218271951.86295653
95,32317955.994306864
512,69106004.40578471
1716,218271951.86295653
2,1, 7, 1, 0,20, 0.00,60.00,Monday
59,230091013.34067325
95,38659963.2797442
512,59822356.054136309
1716,230091013.3406732
2,1, 7, 1, 0,21, 0.00,60.00,Monday
59,230637967.4325979
95,26303943.895732464
512,59822356.054136309
1716,230637967.4325979
2,1, 7, 1, 0,22, 0.00,60.00,Monday
59,121664987.44401627
95,26303943.895732464
512,55180531.87831209
1716,121664987.44401627
2,1, 7, 1, 0,23, 0.00,60.00,Monday
59,112727568.93384202
95,13151971.947866232
512,55180531.87831209
1716,112727568.93384202
2,1, 7, 1, 0,24, 0.00,60.00,Monday
59,103033911.011031
95,6575985.973933116
512,55180531.87831209
1716,103033911.01103102
2,2, 7, 2, 0, 1, 0.00,60.00,Tuesday
59,68925475.00681333
95,7625873.53771374
512,44533202.00181081
1716,68925475.00681333
2,2, 7, 2, 0, 2, 0.00,60.00,Tuesday
59,71829919.52468004
95,7625873.53771374
512,44533202.00181081
1716,71829919.52468004
2,2, 7, 2, 0, 3, 0.00,60.00,Tuesday
59,76750660.3877911
95,7625873.53771374
512,44533202.00181081
1716,76750660.3877911
2,2, 7, 2, 0, 4, 0.00,60.00,Tuesday
59,75820512.21516887
95,7625873.53771374
512,44533202.00181081
1716,75820512.21516887
2,2, 7, 2, 0, 5, 0.00,60.00,Tuesday
59,75256438.12885782
95,7625873.53771374
512,44533202.00181081
1716,75256438.12885782
2,2, 7, 2, 0, 6, 0.00,60.00,Tuesday
59,84652640.69520462
95,15251747.07542748
512,44533202.00181081
1716,84652640.69520462
2,2, 7, 2, 0, 7, 0.00,60.00,Tuesday
59,99057378.60010247
95,12296147.58146537
512,55180531.87831209
1716,99057378.60010247
2,2, 7, 2, 0, 8, 0.00,60.00,Tuesday
59,258704464.3758391
95,31628414.8665353
512,95796493.41677362
1716,258704464.3758391
2,2, 7, 2, 0, 9, 0.00,60.00,Tuesday
59,425024414.363605
95,94794706.06222737
512,204227663.7591696
1716,425024414.363605
2,2, 7, 2, 0,10, 0.00,60.00,Tuesday
59,384223959.8495173
95,93332161.77034077
512,174055806.61631225
1716,384223959.8495173
2,2, 7, 2, 0,11, 0.00,60.00,Tuesday
59,377053385.6693563
95,93124323.85391505
512,167093070.3525762
1716,377053385.6693563
2,2, 7, 2, 0,12, 0.00,60.00,Tuesday
59,384016121.9330919
95,93124323.85391505
512,174055806.61631225
1716,384016121.9330919
2,2, 7, 2, 0,13, 0.00,60.00,Tuesday
59,387957829.62285509
95,93124323.85391505
512,177667514.30607493
1716,387957829.62285509
2,2, 7, 2, 0,14, 0.00,60.00,Tuesday
59,389836402.1528722
95,93124323.85391505
512,179858086.83609239
1716,389836402.15287217
2,2, 7, 2, 0,15, 0.00,60.00,Tuesday
59,377053385.6693563
95,93124323.85391505
512,167093070.3525762
1716,377053385.6693563
2,2, 7, 2, 0,16, 0.00,60.00,Tuesday
59,377053385.6693563
95,93124323.85391505
512,167093070.3525762
1716,377053385.6693563
2,2, 7, 2, 0,17, 0.00,60.00,Tuesday
59,387557490.0649598
95,93124323.85391505
512,177537174.74818046
1716,387557490.0649598
2,2, 7, 2, 0,18, 0.00,60.00,Tuesday
59,309901616.73763379
95,51793685.701603759
512,140923939.57316477
1716,309901616.73763379
2,2, 7, 2, 0,19, 0.00,60.00,Tuesday
59,218386094.39722265
95,32426098.52857293
512,69106004.40578471
1716,218386094.39722265
2,2, 7, 2, 0,20, 0.00,60.00,Tuesday
59,221132358.3518398
95,38403924.834838759
512,59822356.054136309
1716,221132358.35183976
2,2, 7, 2, 0,21, 0.00,60.00,Tuesday
59,213998811.41273386
95,26303943.895732464
512,59822356.054136309
1716,213998811.41273386
2,2, 7, 2, 0,22, 0.00,60.00,Tuesday
59,123095190.43595185
95,26303943.895732464
512,55180531.87831209
1716,123095190.43595185
2,2, 7, 2, 0,23, 0.00,60.00,Tuesday
59,113045588.91964136
95,13151971.947866232
512,55180531.87831209
1716,113045588.91964136
2,2, 7, 2, 0,24, 0.00,60.00,Tuesday
59,104050358.97694955
95,6575985.973933116
512,55180531.87831209
1716,104050358.97694956
End of Data
 Number of Records Written=         384
