Program Version,EnergyPlus, Version 9.5.0-de239b2e5f, YMD=2021.07.16 13:34
1,5,Environment Title[],Latitude[deg],Longitude[deg],Time Zone[],Elevation[m]
2,8,Day of Simulation[],Month[],Day of Month[],DST Indicator[1=yes 0=no],Hour[],StartMinute[],EndMinute[],DayType
3,5,Cumulative Day of Simulation[],Month[],Day of Month[],DST Indicator[1=yes 0=no],DayType  ! When Daily Report Variables Requested
4,2,Cumulative Days of Simulation[],Month[]  ! When Monthly Report Variables Requested
5,1,Cumulative Days of Simulation[] ! When Run Period Report Variables Requested
6,1,Calendar Year of Simulation[] ! When Annual Report Variables Requested
651,1,PERIMETER_BOT_ZN_1,Zone Mean Air Temperature [C] !Hourly
1716,1,PERI1_TOP_LOTEMP,Zone Radiant HVAC Cooling Rate [W] !Hourly
End of Data Dictionary
1,ATLANTA-HARTSFIELD.JACKSON.INTL.AP_GA_USA ANN HTG 99.6% CONDNS DB,  33.63, -84.43,  -5.00, 308.00
2,1, 1,21, 0, 1, 0.00,60.00,WinterDesignDay
651,16.051292496802814
1716,0.0
2,1, 1,21, 0, 2, 0.00,60.00,WinterDesignDay
651,16.04967177145685
1716,0.0
2,1, 1,21, 0, 3, 0.00,60.00,WinterDesignDay
651,16.049873333433469
1716,0.0
2,1, 1,21, 0, 4, 0.00,60.00,WinterDesignDay
651,16.049194020368377
1716,0.0
2,1, 1,21, 0, 5, 0.00,60.00,WinterDesignDay
651,16.049710385137435
1716,0.0
2,1, 1,21, 0, 6, 0.00,60.00,WinterDesignDay
651,16.04868260858905
1716,0.0
2,1, 1,21, 0, 7, 0.00,60.00,WinterDesignDay
651,16.092909520184798
1716,0.0
2,1, 1,21, 0, 8, 0.00,60.00,WinterDesignDay
651,16.05122271762102
1716,0.0
2,1, 1,21, 0, 9, 0.00,60.00,WinterDesignDay
651,16.058710730765893
1716,0.0
2,1, 1,21, 0,10, 0.00,60.00,WinterDesignDay
651,16.053794298409128
1716,0.0
2,1, 1,21, 0,11, 0.00,60.00,WinterDesignDay
651,16.04848095332204
1716,0.0
2,1, 1,21, 0,12, 0.00,60.00,WinterDesignDay
651,16.053891404911579
1716,0.0
2,1, 1,21, 0,13, 0.00,60.00,WinterDesignDay
651,16.057687116175669
1716,0.0
2,1, 1,21, 0,14, 0.00,60.00,WinterDesignDay
651,16.052163085869624
1716,0.0
2,1, 1,21, 0,15, 0.00,60.00,WinterDesignDay
651,16.051593652584953
1716,0.0
2,1, 1,21, 0,16, 0.00,60.00,WinterDesignDay
651,16.05849190266736
1716,0.0
2,1, 1,21, 0,17, 0.00,60.00,WinterDesignDay
651,16.05733374460486
1716,0.0
2,1, 1,21, 0,18, 0.00,60.00,WinterDesignDay
651,16.052558928224778
1716,0.0
2,1, 1,21, 0,19, 0.00,60.00,WinterDesignDay
651,16.041961590605493
1716,0.0
2,1, 1,21, 0,20, 0.00,60.00,WinterDesignDay
651,16.045137506644087
1716,0.0
2,1, 1,21, 0,21, 0.00,60.00,WinterDesignDay
651,16.037761904783687
1716,0.0
2,1, 1,21, 0,22, 0.00,60.00,WinterDesignDay
651,16.05198722233478
1716,0.0
2,1, 1,21, 0,23, 0.00,60.00,WinterDesignDay
651,16.05050458968803
1716,0.0
2,1, 1,21, 0,24, 0.00,60.00,WinterDesignDay
651,16.052974156462726
1716,0.0
1,ATLANTA-HARTSFIELD.JACKSON.INTL.AP_GA_USA ANN CLG .4% CONDNS DB=>MWB,  33.63, -84.43,  -5.00, 308.00
2,1, 7,21, 0, 1, 0.00,60.00,SummerDesignDay
651,19.176554788825226
1716,10105.154792755024
2,1, 7,21, 0, 2, 0.00,60.00,SummerDesignDay
651,19.07877981917537
1716,9960.953284388896
2,1, 7,21, 0, 3, 0.00,60.00,SummerDesignDay
651,19.002238183455959
1716,9819.70934790036
2,1, 7,21, 0, 4, 0.00,60.00,SummerDesignDay
651,18.93777405988302
1716,9686.964645784941
2,1, 7,21, 0, 5, 0.00,60.00,SummerDesignDay
651,18.88196973990621
1716,9568.10996154548
2,1, 7,21, 0, 6, 0.00,60.00,SummerDesignDay
651,18.84379441945131
1716,9507.675405048543
2,1, 7,21, 0, 7, 0.00,60.00,SummerDesignDay
651,19.20368541322982
1716,10786.312989610939
2,1, 7,21, 0, 8, 0.00,60.00,SummerDesignDay
651,19.429060223640755
1716,11073.960221035995
2,1, 7,21, 0, 9, 0.00,60.00,SummerDesignDay
651,19.757522348937177
1716,11951.011545480696
2,1, 7,21, 0,10, 0.00,60.00,SummerDesignDay
651,20.151085452345784
1716,12994.16652522087
2,1, 7,21, 0,11, 0.00,60.00,SummerDesignDay
651,20.70195254036082
1716,14570.43590356736
2,1, 7,21, 0,12, 0.00,60.00,SummerDesignDay
651,21.29110756247001
1716,16062.22166408121
2,1, 7,21, 0,13, 0.00,60.00,SummerDesignDay
651,21.750254413400357
1716,16971.574553487397
2,1, 7,21, 0,14, 0.00,60.00,SummerDesignDay
651,22.001048121077419
1716,17194.383328741897
2,1, 7,21, 0,15, 0.00,60.00,SummerDesignDay
651,22.01292007485546
1716,16741.683507822578
2,1, 7,21, 0,16, 0.00,60.00,SummerDesignDay
651,21.797294645194527
1716,15769.367595147216
2,1, 7,21, 0,17, 0.00,60.00,SummerDesignDay
651,21.456037799396698
1716,14735.461128962539
2,1, 7,21, 0,18, 0.00,60.00,SummerDesignDay
651,21.110911533358128
1716,13905.400112495898
2,1, 7,21, 0,19, 0.00,60.00,SummerDesignDay
651,20.749793009671394
1716,13036.847825780682
2,1, 7,21, 0,20, 0.00,60.00,SummerDesignDay
651,20.433922121841868
1716,12455.223400804613
2,1, 7,21, 0,21, 0.00,60.00,SummerDesignDay
651,20.162169752303467
1716,11932.062612689562
2,1, 7,21, 0,22, 0.00,60.00,SummerDesignDay
651,19.95657217115033
1716,11581.994006537872
2,1, 7,21, 0,23, 0.00,60.00,SummerDesignDay
651,19.494505564699517
1716,10238.756202613951
2,1, 7,21, 0,24, 0.00,60.00,SummerDesignDay
651,19.314540109155489
1716,10310.368507463656
1,RUNPERIOD 1,  33.63, -84.43,  -5.00, 308.00
2,1, 7, 1, 0, 1, 0.00,60.00,Sunday
651,17.970667698894187
1716,6058.0330221885919
2,1, 7, 1, 0, 2, 0.00,60.00,Sunday
651,17.97226191978704
1716,5735.462665892539
2,1, 7, 1, 0, 3, 0.00,60.00,Sunday
651,17.985004068916959
1716,5339.223519848369
2,1, 7, 1, 0, 4, 0.00,60.00,Sunday
651,17.971621854062268
1716,5362.786759408892
2,1, 7, 1, 0, 5, 0.00,60.00,Sunday
651,17.98186974890126
1716,5710.591650541046
2,1, 7, 1, 0, 6, 0.00,60.00,Sunday
651,17.976135109143326
1716,6948.780033642307
2,1, 7, 1, 0, 7, 0.00,60.00,Sunday
651,17.985882354670765
1716,8183.411222468566
2,1, 7, 1, 0, 8, 0.00,60.00,Sunday
651,17.976870496420309
1716,10516.587049617305
2,1, 7, 1, 0, 9, 0.00,60.00,Sunday
651,17.991681285995825
1716,14302.166576790574
2,1, 7, 1, 0,10, 0.00,60.00,Sunday
651,18.132164020609463
1716,12216.420255729485
2,1, 7, 1, 0,11, 0.00,60.00,Sunday
651,18.97814807870281
1716,3321.1261771455726
2,1, 7, 1, 0,12, 0.00,60.00,Sunday
651,19.621518786095959
1716,16421.471359121537
2,1, 7, 1, 0,13, 0.00,60.00,Sunday
651,20.48599275172858
1716,1802.092203781299
2,1, 7, 1, 0,14, 0.00,60.00,Sunday
651,20.642307772617526
1716,13267.789413077562
2,1, 7, 1, 0,15, 0.00,60.00,Sunday
651,19.468211656543155
1716,27722.83129908873
2,1, 7, 1, 0,16, 0.00,60.00,Sunday
651,19.251553230481894
1716,284.84238087847367
2,1, 7, 1, 0,17, 0.00,60.00,Sunday
651,19.688476932007597
1716,1853.1444836737217
2,1, 7, 1, 0,18, 0.00,60.00,Sunday
651,19.46013348169454
1716,9304.690407954882
2,1, 7, 1, 0,19, 0.00,60.00,Sunday
651,19.171916874186885
1716,5799.39787061624
2,1, 7, 1, 0,20, 0.00,60.00,Sunday
651,18.55679441964047
1716,12449.699583884776
2,1, 7, 1, 0,21, 0.00,60.00,Sunday
651,17.981518914052765
1716,6027.745677296258
2,1, 7, 1, 0,22, 0.00,60.00,Sunday
651,17.986937830449379
1716,4566.748462284917
2,1, 7, 1, 0,23, 0.00,60.00,Sunday
651,17.97484860493613
1716,5511.734664829905
2,1, 7, 1, 0,24, 0.00,60.00,Sunday
651,17.972927901338826
1716,5157.800151122161
2,2, 7, 2, 0, 1, 0.00,60.00,Monday
651,17.99349416311763
1716,5708.084334177526
2,2, 7, 2, 0, 2, 0.00,60.00,Monday
651,17.988865240911414
1716,5434.632132841472
2,2, 7, 2, 0, 3, 0.00,60.00,Monday
651,17.988040199617108
1716,4874.983288213698
2,2, 7, 2, 0, 4, 0.00,60.00,Monday
651,17.986216452083139
1716,5205.986951441411
2,2, 7, 2, 0, 5, 0.00,60.00,Monday
651,17.9848399130537
1716,4339.024589477301
2,2, 7, 2, 0, 6, 0.00,60.00,Monday
651,17.988534253285925
1716,5430.780965338087
2,2, 7, 2, 0, 7, 0.00,60.00,Monday
651,18.010648364266609
1716,10217.316235298436
2,2, 7, 2, 0, 8, 0.00,60.00,Monday
651,18.916540121572969
1716,12302.505597681635
2,2, 7, 2, 0, 9, 0.00,60.00,Monday
651,19.181985029270419
1716,10492.822015534037
2,2, 7, 2, 0,10, 0.00,60.00,Monday
651,19.630480748536387
1716,11581.264075626625
2,2, 7, 2, 0,11, 0.00,60.00,Monday
651,20.113037678479207
1716,12753.898398012816
2,2, 7, 2, 0,12, 0.00,60.00,Monday
651,20.661770212689026
1716,14118.249111900366
2,2, 7, 2, 0,13, 0.00,60.00,Monday
651,22.764230890617378
1716,20500.36348100741
2,2, 7, 2, 0,14, 0.00,60.00,Monday
651,21.562746263039935
1716,13303.350064762248
2,2, 7, 2, 0,15, 0.00,60.00,Monday
651,21.440628157674646
1716,14527.08913021493
2,2, 7, 2, 0,16, 0.00,60.00,Monday
651,21.41460301249118
1716,14616.308962325811
2,2, 7, 2, 0,17, 0.00,60.00,Monday
651,21.244083034454044
1716,14033.352269080639
2,2, 7, 2, 0,18, 0.00,60.00,Monday
651,22.75453879527702
1716,19073.760854065153
2,2, 7, 2, 0,19, 0.00,60.00,Monday
651,20.172327415442493
1716,7681.274538414075
2,2, 7, 2, 0,20, 0.00,60.00,Monday
651,18.923220524920429
1716,7128.863578616226
2,2, 7, 2, 0,21, 0.00,60.00,Monday
651,18.37892895623552
1716,7345.156972577166
2,2, 7, 2, 0,22, 0.00,60.00,Monday
651,18.065481187390995
1716,7245.680171990111
2,2, 7, 2, 0,23, 0.00,60.00,Monday
651,18.002221640012669
1716,5679.485974204968
2,2, 7, 2, 0,24, 0.00,60.00,Monday
651,17.99460239160852
1716,5071.6391538905459
End of Data
 Number of Records Written=         192
