Program Version,EnergyPlus, Version 9.5.0-de239b2e5f, YMD=2021.07.16 12:04
1,5,Environment Title[],Latitude[deg],Longitude[deg],Time Zone[],Elevation[m]
2,8,Day of Simulation[],Month[],Day of Month[],DST Indicator[1=yes 0=no],Hour[],StartMinute[],EndMinute[],DayType
3,5,Cumulative Day of Simulation[],Month[],Day of Month[],DST Indicator[1=yes 0=no],DayType  ! When Daily Report Variables Requested
4,2,Cumulative Days of Simulation[],Month[]  ! When Monthly Report Variables Requested
5,1,Cumulative Days of Simulation[] ! When Run Period Report Variables Requested
6,1,Calendar Year of Simulation[] ! When Annual Report Variables Requested
651,1,PERIMETER_BOT_ZN_1,Zone Mean Air Temperature [C] !Hourly
1716,1,PERI1_TOP_LOTEMP,Zone Radiant HVAC Cooling Rate [W] !Hourly
End of Data Dictionary
1,ATLANTA-HARTSFIELD.JACKSON.INTL.AP_GA_USA ANN HTG 99.6% CONDNS DB,  33.63, -84.43,  -5.00, 308.00
2,1, 1,21, 0, 1, 0.00,60.00,WinterDesignDay
651,16.051292496802814
1716,0.0
2,1, 1,21, 0, 2, 0.00,60.00,WinterDesignDay
651,16.04967177145685
1716,0.0
2,1, 1,21, 0, 3, 0.00,60.00,WinterDesignDay
651,16.049873333433469
1716,0.0
2,1, 1,21, 0, 4, 0.00,60.00,WinterDesignDay
651,16.049194020368377
1716,0.0
2,1, 1,21, 0, 5, 0.00,60.00,WinterDesignDay
651,16.049710385137435
1716,0.0
2,1, 1,21, 0, 6, 0.00,60.00,WinterDesignDay
651,16.04868260858905
1716,0.0
2,1, 1,21, 0, 7, 0.00,60.00,WinterDesignDay
651,16.092909520184798
1716,0.0
2,1, 1,21, 0, 8, 0.00,60.00,WinterDesignDay
651,16.05122271762102
1716,0.0
2,1, 1,21, 0, 9, 0.00,60.00,WinterDesignDay
651,16.058710730765893
1716,0.0
2,1, 1,21, 0,10, 0.00,60.00,WinterDesignDay
651,16.053794298409128
1716,0.0
2,1, 1,21, 0,11, 0.00,60.00,WinterDesignDay
651,16.04848095332204
1716,0.0
2,1, 1,21, 0,12, 0.00,60.00,WinterDesignDay
651,16.053891404911579
1716,0.0
2,1, 1,21, 0,13, 0.00,60.00,WinterDesignDay
651,16.057687116175669
1716,0.0
2,1, 1,21, 0,14, 0.00,60.00,WinterDesignDay
651,16.052163085869624
1716,0.0
2,1, 1,21, 0,15, 0.00,60.00,WinterDesignDay
651,16.051593652584953
1716,0.0
2,1, 1,21, 0,16, 0.00,60.00,WinterDesignDay
651,16.05849190266736
1716,0.0
2,1, 1,21, 0,17, 0.00,60.00,WinterDesignDay
651,16.05733374460486
1716,0.0
2,1, 1,21, 0,18, 0.00,60.00,WinterDesignDay
651,16.052558928224778
1716,0.0
2,1, 1,21, 0,19, 0.00,60.00,WinterDesignDay
651,16.041961590605493
1716,0.0
2,1, 1,21, 0,20, 0.00,60.00,WinterDesignDay
651,16.045137506644087
1716,0.0
2,1, 1,21, 0,21, 0.00,60.00,WinterDesignDay
651,16.037761904783687
1716,0.0
2,1, 1,21, 0,22, 0.00,60.00,WinterDesignDay
651,16.05198722233478
1716,0.0
2,1, 1,21, 0,23, 0.00,60.00,WinterDesignDay
651,16.05050458968803
1716,0.0
2,1, 1,21, 0,24, 0.00,60.00,WinterDesignDay
651,16.052974156462726
1716,0.0
1,ATLANTA-HARTSFIELD.JACKSON.INTL.AP_GA_USA ANN CLG .4% CONDNS DB=>MWB,  33.63, -84.43,  -5.00, 308.00
2,1, 7,21, 0, 1, 0.00,60.00,SummerDesignDay
651,19.17655478812883
1716,10105.15479151498
2,1, 7,21, 0, 2, 0.00,60.00,SummerDesignDay
651,19.078779818728454
1716,9960.953283720144
2,1, 7,21, 0, 3, 0.00,60.00,SummerDesignDay
651,19.00223818319221
1716,9819.709347625245
2,1, 7,21, 0, 4, 0.00,60.00,SummerDesignDay
651,18.9377740597137
1716,9686.964645666802
2,1, 7,21, 0, 5, 0.00,60.00,SummerDesignDay
651,18.881969739795964
1716,9568.109961513172
2,1, 7,21, 0, 6, 0.00,60.00,SummerDesignDay
651,18.843794419507178
1716,9507.675405746839
2,1, 7,21, 0, 7, 0.00,60.00,SummerDesignDay
651,19.203685413844139
1716,10786.312991750112
2,1, 7,21, 0, 8, 0.00,60.00,SummerDesignDay
651,19.429060223443768
1716,11073.960219869223
2,1, 7,21, 0, 9, 0.00,60.00,SummerDesignDay
651,19.757522349474486
1716,11951.011547928028
2,1, 7,21, 0,10, 0.00,60.00,SummerDesignDay
651,20.151085453540519
1716,12994.166529218994
2,1, 7,21, 0,11, 0.00,60.00,SummerDesignDay
651,20.7019525425044
1716,14570.435910748003
2,1, 7,21, 0,12, 0.00,60.00,SummerDesignDay
651,21.291107563914474
1716,16062.221667050866
2,1, 7,21, 0,13, 0.00,60.00,SummerDesignDay
651,21.750254414390736
1716,16971.57455550483
2,1, 7,21, 0,14, 0.00,60.00,SummerDesignDay
651,22.001048121967228
1716,17194.383331024237
2,1, 7,21, 0,15, 0.00,60.00,SummerDesignDay
651,22.012920075815776
1716,16741.683510620547
2,1, 7,21, 0,16, 0.00,60.00,SummerDesignDay
651,21.79729464625913
1716,15769.367598286632
2,1, 7,21, 0,17, 0.00,60.00,SummerDesignDay
651,21.45603780038651
1716,14735.461131628028
2,1, 7,21, 0,18, 0.00,60.00,SummerDesignDay
651,21.110911534182354
1716,13905.400114541653
2,1, 7,21, 0,19, 0.00,60.00,SummerDesignDay
651,20.74979301031577
1716,13036.847827276422
2,1, 7,21, 0,20, 0.00,60.00,SummerDesignDay
651,20.43392212233866
1716,12455.223401936024
2,1, 7,21, 0,21, 0.00,60.00,SummerDesignDay
651,20.162169752705549
1716,11932.062613635635
2,1, 7,21, 0,22, 0.00,60.00,SummerDesignDay
651,19.956572171525648
1716,11581.994007531384
2,1, 7,21, 0,23, 0.00,60.00,SummerDesignDay
651,19.494505564981418
1716,10238.756203232797
2,1, 7,21, 0,24, 0.00,60.00,SummerDesignDay
651,19.31454010936962
1716,10310.368507981122
1,RUNPERIOD 1,  33.63, -84.43,  -5.00, 308.00
2,1, 7, 1, 0, 1, 0.00,60.00,Sunday
651,17.965022911273988
1716,6421.704263675276
2,1, 7, 1, 0, 2, 0.00,60.00,Sunday
651,17.98083943130412
1716,6498.942741201916
2,1, 7, 1, 0, 3, 0.00,60.00,Sunday
651,17.964460480651906
1716,4168.5858060256209
2,1, 7, 1, 0, 4, 0.00,60.00,Sunday
651,17.979836794106086
1716,5541.427950892093
2,1, 7, 1, 0, 5, 0.00,60.00,Sunday
651,17.974662614593389
1716,6541.580060315696
2,1, 7, 1, 0, 6, 0.00,60.00,Sunday
651,17.970498932095265
1716,5329.684717235595
2,1, 7, 1, 0, 7, 0.00,60.00,Sunday
651,17.979762215583276
1716,8633.242716282663
2,1, 7, 1, 0, 8, 0.00,60.00,Sunday
651,17.983266246826294
1716,11248.097476293673
2,1, 7, 1, 0, 9, 0.00,60.00,Sunday
651,17.999552902302434
1716,12440.897943110818
2,1, 7, 1, 0,10, 0.00,60.00,Sunday
651,18.005062927726735
1716,16122.424005872404
2,1, 7, 1, 0,11, 0.00,60.00,Sunday
651,18.302541842172855
1716,11739.94961884659
2,1, 7, 1, 0,12, 0.00,60.00,Sunday
651,18.63794569640701
1716,18225.254130400535
2,1, 7, 1, 0,13, 0.00,60.00,Sunday
651,19.50065763088745
1716,3084.1309050195229
2,1, 7, 1, 0,14, 0.00,60.00,Sunday
651,20.06473812499224
1716,7092.9223076931489
2,1, 7, 1, 0,15, 0.00,60.00,Sunday
651,19.96680553714469
1716,13624.158344190751
2,1, 7, 1, 0,16, 0.00,60.00,Sunday
651,19.841276265880649
1716,7685.213684924229
2,1, 7, 1, 0,17, 0.00,60.00,Sunday
651,19.504506249017497
1716,8606.34372271747
2,1, 7, 1, 0,18, 0.00,60.00,Sunday
651,18.683617129178
1716,15476.05354530364
2,1, 7, 1, 0,19, 0.00,60.00,Sunday
651,18.043363106883466
1716,8117.398981162989
2,1, 7, 1, 0,20, 0.00,60.00,Sunday
651,17.97917475910051
1716,3900.4320620871369
2,1, 7, 1, 0,21, 0.00,60.00,Sunday
651,17.981457315581307
1716,4952.593163619794
2,1, 7, 1, 0,22, 0.00,60.00,Sunday
651,17.97198214809355
1716,3962.8670621339749
2,1, 7, 1, 0,23, 0.00,60.00,Sunday
651,17.977278905291177
1716,5210.018414238759
2,1, 7, 1, 0,24, 0.00,60.00,Sunday
651,17.967919033512904
1716,5240.1825719451239
2,2, 7, 2, 0, 1, 0.00,60.00,Monday
651,17.99039508532927
1716,5537.7696388794579
2,2, 7, 2, 0, 2, 0.00,60.00,Monday
651,17.99021679901343
1716,5773.047747368721
2,2, 7, 2, 0, 3, 0.00,60.00,Monday
651,17.991166490905476
1716,5055.644884168769
2,2, 7, 2, 0, 4, 0.00,60.00,Monday
651,17.983377370990664
1716,4251.270432896284
2,2, 7, 2, 0, 5, 0.00,60.00,Monday
651,17.984292264698774
1716,4798.998555022145
2,2, 7, 2, 0, 6, 0.00,60.00,Monday
651,17.988040951898307
1716,5111.636988801813
2,2, 7, 2, 0, 7, 0.00,60.00,Monday
651,18.01051505384334
1716,10242.644139174768
2,2, 7, 2, 0, 8, 0.00,60.00,Monday
651,18.916996915012484
1716,12521.849256892781
2,2, 7, 2, 0, 9, 0.00,60.00,Monday
651,19.17658384683442
1716,10496.904058475595
2,2, 7, 2, 0,10, 0.00,60.00,Monday
651,19.62496060948932
1716,11569.70235572002
2,2, 7, 2, 0,11, 0.00,60.00,Monday
651,20.10815190698927
1716,12742.239382492719
2,2, 7, 2, 0,12, 0.00,60.00,Monday
651,20.657580314730713
1716,14108.227164830012
2,2, 7, 2, 0,13, 0.00,60.00,Monday
651,22.76145998428016
1716,20494.423960515844
2,2, 7, 2, 0,14, 0.00,60.00,Monday
651,21.559955958857718
1716,13295.692307412395
2,2, 7, 2, 0,15, 0.00,60.00,Monday
651,21.438262365037688
1716,14521.209558463002
2,2, 7, 2, 0,16, 0.00,60.00,Monday
651,21.41265035516308
1716,14611.549015021472
2,2, 7, 2, 0,17, 0.00,60.00,Monday
651,21.242442314336974
1716,14029.337965573883
2,2, 7, 2, 0,18, 0.00,60.00,Monday
651,22.753439994634886
1716,19071.339390841862
2,2, 7, 2, 0,19, 0.00,60.00,Monday
651,20.171297213073414
1716,7678.497737140983
2,2, 7, 2, 0,20, 0.00,60.00,Monday
651,18.9225108678339
1716,7127.098128723528
2,2, 7, 2, 0,21, 0.00,60.00,Monday
651,18.378259030072475
1716,7343.207093354616
2,2, 7, 2, 0,22, 0.00,60.00,Monday
651,18.064902089057474
1716,7244.125194610552
2,2, 7, 2, 0,23, 0.00,60.00,Monday
651,18.001542556211289
1716,5663.101087707321
2,2, 7, 2, 0,24, 0.00,60.00,Monday
651,17.99599894106955
1716,4883.415616654625
End of Data
 Number of Records Written=         192
