Program Version,EnergyPlus, Version 9.5.0-de239b2e5f, YMD=2021.07.16 13:34
1,5,Environment Title[],Latitude[deg],Longitude[deg],Time Zone[],Elevation[m]
2,8,Day of Simulation[],Month[],Day of Month[],DST Indicator[1=yes 0=no],Hour[],StartMinute[],EndMinute[],DayType
3,5,Cumulative Day of Simulation[],Month[],Day of Month[],DST Indicator[1=yes 0=no],DayType  ! When Daily Meters Requested
4,2,Cumulative Days of Simulation[],Month[]  ! When Monthly Meters Requested
5,1,Cumulative Days of Simulation[] ! When Run Period Meters Requested
6,1,Calendar Year of Simulation[] ! When Annual Meters Requested
9,1,Electricity:Facility [J] !Hourly
1508,1,ElectricityNet:Facility [J] !Hourly
45,1,InteriorLights:Electricity [J] !Hourly
432,1,InteriorEquipment:Electricity [J] !Hourly
End of Data Dictionary
1,ATLANTA-HARTSFIELD.JACKSON.INTL.AP_GA_USA ANN HTG 99.6% CONDNS DB,  33.63, -84.43,  -5.00, 308.00
2,1, 1,21, 0, 1, 0.00,60.00,WinterDesignDay
9,115919623.926708
45,0.0
432,0.0
1508,115919623.926708
2,1, 1,21, 0, 2, 0.00,60.00,WinterDesignDay
9,115955623.926708
45,0.0
432,0.0
1508,115955623.926708
2,1, 1,21, 0, 3, 0.00,60.00,WinterDesignDay
9,115919623.926708
45,0.0
432,0.0
1508,115919623.926708
2,1, 1,21, 0, 4, 0.00,60.00,WinterDesignDay
9,115919623.926708
45,0.0
432,0.0
1508,115919623.926708
2,1, 1,21, 0, 5, 0.00,60.00,WinterDesignDay
9,115919623.926708
45,0.0
432,0.0
1508,115919623.926708
2,1, 1,21, 0, 6, 0.00,60.00,WinterDesignDay
9,115919623.926708
45,0.0
432,0.0
1508,115919623.926708
2,1, 1,21, 0, 7, 0.00,60.00,WinterDesignDay
9,126063883.92670787
45,0.0
432,0.0
1508,126063883.92670787
2,1, 1,21, 0, 8, 0.00,60.00,WinterDesignDay
9,121423033.92670787
45,0.0
432,0.0
1508,121423033.92670787
2,1, 1,21, 0, 9, 0.00,60.00,WinterDesignDay
9,107248483.92670802
45,0.0
432,0.0
1508,107248483.92670802
2,1, 1,21, 0,10, 0.00,60.00,WinterDesignDay
9,107284483.92670802
45,0.0
432,0.0
1508,107284483.92670802
2,1, 1,21, 0,11, 0.00,60.00,WinterDesignDay
9,107284483.92670802
45,0.0
432,0.0
1508,107284483.92670802
2,1, 1,21, 0,12, 0.00,60.00,WinterDesignDay
9,107248483.92670802
45,0.0
432,0.0
1508,107248483.92670802
2,1, 1,21, 0,13, 0.00,60.00,WinterDesignDay
9,107284483.92670802
45,0.0
432,0.0
1508,107284483.92670802
2,1, 1,21, 0,14, 0.00,60.00,WinterDesignDay
9,107284483.92670802
45,0.0
432,0.0
1508,107284483.92670802
2,1, 1,21, 0,15, 0.00,60.00,WinterDesignDay
9,107284483.92670802
45,0.0
432,0.0
1508,107284483.92670802
2,1, 1,21, 0,16, 0.00,60.00,WinterDesignDay
9,107248483.92670802
45,0.0
432,0.0
1508,107248483.92670802
2,1, 1,21, 0,17, 0.00,60.00,WinterDesignDay
9,107284483.92670802
45,0.0
432,0.0
1508,107284483.92670802
2,1, 1,21, 0,18, 0.00,60.00,WinterDesignDay
9,109798003.92670802
45,0.0
432,0.0
1508,109798003.92670802
2,1, 1,21, 0,19, 0.00,60.00,WinterDesignDay
9,126423883.92670787
45,0.0
432,0.0
1508,126423883.92670787
2,1, 1,21, 0,20, 0.00,60.00,WinterDesignDay
9,118429003.926708
45,0.0
432,0.0
1508,118429003.92670787
2,1, 1,21, 0,21, 0.00,60.00,WinterDesignDay
9,118465003.926708
45,0.0
432,0.0
1508,118465003.92670787
2,1, 1,21, 0,22, 0.00,60.00,WinterDesignDay
9,118501003.926708
45,0.0
432,0.0
1508,118501003.92670787
2,1, 1,21, 0,23, 0.00,60.00,WinterDesignDay
9,118501003.926708
45,0.0
432,0.0
1508,118501003.92670787
2,1, 1,21, 0,24, 0.00,60.00,WinterDesignDay
9,118501003.926708
45,0.0
432,0.0
1508,118501003.92670787
1,ATLANTA-HARTSFIELD.JACKSON.INTL.AP_GA_USA ANN CLG .4% CONDNS DB=>MWB,  33.63, -84.43,  -5.00, 308.00
2,1, 7,21, 0, 1, 0.00,60.00,SummerDesignDay
9,523760640.6234784
45,152517470.7542746
432,224813060.55296675
1508,523760640.6234784
2,1, 7,21, 0, 2, 0.00,60.00,SummerDesignDay
9,523820640.6234784
45,152517470.7542746
432,224813060.55296675
1508,523820640.6234784
2,1, 7,21, 0, 3, 0.00,60.00,SummerDesignDay
9,523910640.6234784
45,152517470.7542746
432,224813060.55296675
1508,523910640.6234784
2,1, 7,21, 0, 4, 0.00,60.00,SummerDesignDay
9,524036640.6234784
45,152517470.7542746
432,224813060.55296675
1508,524036640.6234784
2,1, 7,21, 0, 5, 0.00,60.00,SummerDesignDay
9,524048640.6234784
45,152517470.7542746
432,224813060.55296675
1508,524048640.6234784
2,1, 7,21, 0, 6, 0.00,60.00,SummerDesignDay
9,521844236.3818794
45,152399851.51267544
432,224813060.55296675
1508,521844236.3818794
2,1, 7,21, 0, 7, 0.00,60.00,SummerDesignDay
9,491273199.54922
45,129457169.68001552
432,224813060.55296675
1508,491273199.5492201
2,1, 7,21, 0, 8, 0.00,60.00,SummerDesignDay
9,482114337.952093
45,120340308.08288898
432,224813060.55296675
1508,482114337.95209297
2,1, 7,21, 0, 9, 0.00,60.00,SummerDesignDay
9,474814278.4997982
45,119991185.40467149
432,224813060.55296675
1508,474814278.4997982
2,1, 7,21, 0,10, 0.00,60.00,SummerDesignDay
9,463301205.89002946
45,119991185.40467149
432,224813060.55296675
1508,463301205.89002946
2,1, 7,21, 0,11, 0.00,60.00,SummerDesignDay
9,463301205.89002946
45,119991185.40467149
432,224813060.55296675
1508,463301205.89002946
2,1, 7,21, 0,12, 0.00,60.00,SummerDesignDay
9,463301205.89002946
45,119991185.40467149
432,224813060.55296675
1508,463301205.89002946
2,1, 7,21, 0,13, 0.00,60.00,SummerDesignDay
9,463301205.89002946
45,119991185.40467149
432,224813060.55296675
1508,463301205.89002946
2,1, 7,21, 0,14, 0.00,60.00,SummerDesignDay
9,463301205.89002946
45,119991185.40467149
432,224813060.55296675
1508,463301205.89002946
2,1, 7,21, 0,15, 0.00,60.00,SummerDesignDay
9,463301205.89002946
45,119991185.40467149
432,224813060.55296675
1508,463301205.89002946
2,1, 7,21, 0,16, 0.00,60.00,SummerDesignDay
9,463319205.89002946
45,119991185.40467149
432,224813060.55296675
1508,463319205.89002946
2,1, 7,21, 0,17, 0.00,60.00,SummerDesignDay
9,463301205.89002946
45,119991185.40467149
432,224813060.55296675
1508,463301205.89002946
2,1, 7,21, 0,18, 0.00,60.00,SummerDesignDay
9,463335461.65843179
45,120025441.17307365
432,224813060.55296675
1508,463335461.65843179
2,1, 7,21, 0,19, 0.00,60.00,SummerDesignDay
9,465578167.01781538
45,122268146.53245703
432,224813060.55296675
1508,465578167.01781538
2,1, 7,21, 0,20, 0.00,60.00,SummerDesignDay
9,493420102.3737012
45,146615183.8883431
432,224813060.55296675
1508,493420102.3737022
2,1, 7,21, 0,21, 0.00,60.00,SummerDesignDay
9,506864011.2396321
45,152517470.7542746
432,224813060.55296675
1508,506864011.23963388
2,1, 7,21, 0,22, 0.00,60.00,SummerDesignDay
9,506864011.2396321
45,152517470.7542746
432,224813060.55296675
1508,506864011.23963388
2,1, 7,21, 0,23, 0.00,60.00,SummerDesignDay
9,525310020.6234784
45,152517470.7542746
432,224813060.55296675
1508,525310020.6234784
2,1, 7,21, 0,24, 0.00,60.00,SummerDesignDay
9,526018020.6234784
45,152517470.7542746
432,224813060.55296675
1508,526018020.6234784
1,RUNPERIOD 1,  33.63, -84.43,  -5.00, 308.00
2,1, 7, 1, 0, 1, 0.00,60.00,Sunday
9,56745049.74526477
45,7625873.53771374
432,33399901.50135806
1508,56745049.74526477
2,1, 7, 1, 0, 2, 0.00,60.00,Sunday
9,60829983.38694557
45,7625873.53771374
432,33399901.50135806
1508,60829983.38694557
2,1, 7, 1, 0, 3, 0.00,60.00,Sunday
9,62245247.04103738
45,7625873.53771374
432,33399901.50135806
1508,62245247.04103738
2,1, 7, 1, 0, 4, 0.00,60.00,Sunday
9,55672223.71945994
45,7625873.53771374
432,33399901.50135806
1508,55672223.71945994
2,1, 7, 1, 0, 5, 0.00,60.00,Sunday
9,60463545.758658539
45,7625873.53771374
432,33399901.50135806
1508,60463545.758658539
2,1, 7, 1, 0, 6, 0.00,60.00,Sunday
9,61928415.97341197
45,7413329.546520042
432,33399901.50135806
1508,61928415.97341198
2,1, 7, 1, 0, 7, 0.00,60.00,Sunday
9,80491609.01651728
45,5390491.487484721
432,41385398.908734139
1508,80491609.01651728
2,1, 7, 1, 0, 8, 0.00,60.00,Sunday
9,80540579.20815332
45,5204671.525274598
432,41385398.908734139
1508,80540579.20815332
2,1, 7, 1, 0, 9, 0.00,60.00,Sunday
9,81975382.76877998
45,5173573.547439724
432,41385398.908734139
1508,81975382.76877998
2,1, 7, 1, 0,10, 0.00,60.00,Sunday
9,84421507.07647231
45,5173573.547439724
432,41385398.908734139
1508,84421507.07647231
2,1, 7, 1, 0,11, 0.00,60.00,Sunday
9,83843605.53801076
45,5173573.547439724
432,41385398.908734139
1508,83843605.53801078
2,1, 7, 1, 0,12, 0.00,60.00,Sunday
9,84911457.84570308
45,5173573.547439724
432,41385398.908734139
1508,84911457.84570308
2,1, 7, 1, 0,13, 0.00,60.00,Sunday
9,82860543.3841646
45,5173573.547439724
432,41385398.908734139
1508,82860543.3841646
2,1, 7, 1, 0,14, 0.00,60.00,Sunday
9,84857457.84570308
45,5173573.547439724
432,41385398.908734139
1508,84857457.84570308
2,1, 7, 1, 0,15, 0.00,60.00,Sunday
9,84905457.84570308
45,5173573.547439724
432,41385398.908734139
1508,84905457.84570308
2,1, 7, 1, 0,16, 0.00,60.00,Sunday
9,81195277.39135139
45,5174110.6315495599
432,41385398.908734139
1508,81195277.39135139
2,1, 7, 1, 0,17, 0.00,60.00,Sunday
9,83012003.93276918
45,5231083.3268135399
432,41385398.908734139
1508,83012003.93276918
2,1, 7, 1, 0,18, 0.00,60.00,Sunday
9,84042442.86259112
45,5282558.564327782
432,41385398.908734139
1508,84042442.86259112
2,1, 7, 1, 0,19, 0.00,60.00,Sunday
9,75779803.12597135
45,6361416.235084032
432,33399901.50135806
1508,75779803.12597135
2,1, 7, 1, 0,20, 0.00,60.00,Sunday
9,65390784.37682622
45,7515599.885422203
432,33399901.50135806
1508,65390784.37682623
2,1, 7, 1, 0,21, 0.00,60.00,Sunday
9,59654380.51449549
45,7625873.53771374
432,33399901.50135806
1508,59654380.514495488
2,1, 7, 1, 0,22, 0.00,60.00,Sunday
9,69654739.23408219
45,7625873.53771374
432,33399901.50135806
1508,69654739.23408219
2,1, 7, 1, 0,23, 0.00,60.00,Sunday
9,61790519.425161417
45,7625873.53771374
432,33399901.50135806
1508,61790519.425161417
2,1, 7, 1, 0,24, 0.00,60.00,Sunday
9,62717765.143273968
45,7625873.53771374
432,33399901.50135806
1508,62717765.143273968
2,2, 7, 2, 0, 1, 0.00,60.00,Monday
9,89792214.94146475
45,7625873.53771374
432,44533202.00181081
1508,89792214.94146475
2,2, 7, 2, 0, 2, 0.00,60.00,Monday
9,68002653.54050724
45,7625873.53771374
432,44533202.00181081
1508,68002653.54050724
2,2, 7, 2, 0, 3, 0.00,60.00,Monday
9,72754462.43876212
45,7625873.53771374
432,44533202.00181081
1508,72754462.43876212
2,2, 7, 2, 0, 4, 0.00,60.00,Monday
9,69772354.82288614
45,7625873.53771374
432,44533202.00181081
1508,69772354.82288614
2,2, 7, 2, 0, 5, 0.00,60.00,Monday
9,70060002.29732703
45,7625873.53771374
432,44533202.00181081
1508,70060002.29732701
2,2, 7, 2, 0, 6, 0.00,60.00,Monday
9,74884289.23255861
45,15251747.07542748
432,44533202.00181081
1508,74884289.23255861
2,2, 7, 2, 0, 7, 0.00,60.00,Monday
9,101435693.56396839
45,12081689.219203884
432,55180531.87831209
1508,101435693.56396832
2,2, 7, 2, 0, 8, 0.00,60.00,Monday
9,261654798.9196053
45,31130404.104440474
432,95796493.41677362
1508,261654798.91960529
2,2, 7, 2, 0, 9, 0.00,60.00,Monday
9,434210956.92932119
45,93124323.85391505
432,204227663.7591696
1508,434210956.92932119
2,2, 7, 2, 0,10, 0.00,60.00,Monday
9,404051099.7864642
45,93124323.85391505
432,174055806.61631225
1508,404051099.7864642
2,2, 7, 2, 0,11, 0.00,60.00,Monday
9,397082363.5227287
45,93124323.85391505
432,167093070.3525762
1508,397082363.5227287
2,2, 7, 2, 0,12, 0.00,60.00,Monday
9,403925099.7864642
45,93124323.85391505
432,174055806.61631225
1508,403925099.7864642
2,2, 7, 2, 0,13, 0.00,60.00,Monday
9,406060140.02757349
45,93124323.85391505
432,177667514.30607493
1508,406060140.0275735
2,2, 7, 2, 0,14, 0.00,60.00,Monday
9,391479370.6223989
45,93124323.85391505
432,179858086.83609239
1508,391479370.6223989
2,2, 7, 2, 0,15, 0.00,60.00,Monday
9,378714354.13888308
45,93124323.85391505
432,167093070.3525762
1508,378714354.13888308
2,2, 7, 2, 0,16, 0.00,60.00,Monday
9,378714354.13888308
45,93124323.85391505
432,167093070.3525762
1508,378714354.13888308
2,2, 7, 2, 0,17, 0.00,60.00,Monday
9,389158458.5344866
45,93124323.85391505
432,177537174.74818046
1508,389158458.5344866
2,2, 7, 2, 0,18, 0.00,60.00,Monday
9,313571130.00054576
45,51749162.5771431
432,140923939.57316477
1508,313571130.00054576
2,2, 7, 2, 0,19, 0.00,60.00,Monday
9,237561588.5145324
45,31518614.792510638
432,69106004.40578471
1508,237561588.5145324
2,2, 7, 2, 0,20, 0.00,60.00,Monday
9,237223101.0327301
45,37382529.66235644
432,59822356.054136309
1508,237223101.0327301
2,2, 7, 2, 0,21, 0.00,60.00,Monday
9,235299789.26610593
45,26303943.895732464
432,59822356.054136309
1508,235299789.26610593
2,2, 7, 2, 0,22, 0.00,60.00,Monday
9,118433273.86969725
45,26303943.895732464
432,55180531.87831209
1508,118433273.86969725
2,2, 7, 2, 0,23, 0.00,60.00,Monday
9,105024714.1119969
45,13151971.947866232
432,55180531.87831209
1508,105024714.1119969
2,2, 7, 2, 0,24, 0.00,60.00,Monday
9,91967839.14998345
45,6575985.973933116
432,55180531.87831209
1508,91967839.14998345
End of Data
 Number of Records Written=         384
