Program Version,EnergyPlus, Version 9.4.0-998c4b761e, YMD=2021.07.13 17:38
1,5,Environment Title[],Latitude[deg],Longitude[deg],Time Zone[],Elevation[m]
2,8,Day of Simulation[],Month[],Day of Month[],DST Indicator[1=yes 0=no],Hour[],StartMinute[],EndMinute[],DayType
3,5,Cumulative Day of Simulation[],Month[],Day of Month[],DST Indicator[1=yes 0=no],DayType  ! When Daily Meters Requested
4,2,Cumulative Days of Simulation[],Month[]  ! When Monthly Meters Requested
5,1,Cumulative Days of Simulation[] ! When Run Period Meters Requested
6,1,Calendar Year of Simulation[] ! When Annual Meters Requested
59,1,Electricity:Facility [J] !Hourly
1716,1,ElectricityNet:Facility [J] !Hourly
95,1,InteriorLights:Electricity [J] !Hourly
512,1,InteriorEquipment:Electricity [J] !Hourly
End of Data Dictionary
1,ATLANTA-HARTSFIELD.JACKSON.INTL.AP_GA_USA ANN HTG 99.6% CONDNS DB,  30.58, -96.37,  -6.00,  96.00
2,1, 1,21, 0, 1, 0.00,60.00,WinterDesignDay
59,116887722.38833869
95,0.0
512,0.0
1716,116887722.38833869
2,1, 1,21, 0, 2, 0.00,60.00,WinterDesignDay
59,116887722.38833869
95,0.0
512,0.0
1716,116887722.38833869
2,1, 1,21, 0, 3, 0.00,60.00,WinterDesignDay
59,116887722.38833869
95,0.0
512,0.0
1716,116887722.38833869
2,1, 1,21, 0, 4, 0.00,60.00,WinterDesignDay
59,116887722.38833869
95,0.0
512,0.0
1716,116887722.38833869
2,1, 1,21, 0, 5, 0.00,60.00,WinterDesignDay
59,116887722.38833869
95,0.0
512,0.0
1716,116887722.38833869
2,1, 1,21, 0, 6, 0.00,60.00,WinterDesignDay
59,116887722.38833869
95,0.0
512,0.0
1716,116887722.38833869
2,1, 1,21, 0, 7, 0.00,60.00,WinterDesignDay
59,127067982.38833867
95,0.0
512,0.0
1716,127067982.38833867
2,1, 1,21, 0, 8, 0.00,60.00,WinterDesignDay
59,116565522.38833867
95,0.0
512,0.0
1716,116565522.38833867
2,1, 1,21, 0, 9, 0.00,60.00,WinterDesignDay
59,108360582.38833872
95,0.0
512,0.0
1716,108360582.38833872
2,1, 1,21, 0,10, 0.00,60.00,WinterDesignDay
59,108366582.38833872
95,0.0
512,0.0
1716,108366582.38833872
2,1, 1,21, 0,11, 0.00,60.00,WinterDesignDay
59,108366582.38833872
95,0.0
512,0.0
1716,108366582.38833872
2,1, 1,21, 0,12, 0.00,60.00,WinterDesignDay
59,108366582.38833872
95,0.0
512,0.0
1716,108366582.38833872
2,1, 1,21, 0,13, 0.00,60.00,WinterDesignDay
59,108366582.38833872
95,0.0
512,0.0
1716,108366582.38833872
2,1, 1,21, 0,14, 0.00,60.00,WinterDesignDay
59,108360582.38833872
95,0.0
512,0.0
1716,108360582.38833872
2,1, 1,21, 0,15, 0.00,60.00,WinterDesignDay
59,108372582.38833872
95,0.0
512,0.0
1716,108372582.38833872
2,1, 1,21, 0,16, 0.00,60.00,WinterDesignDay
59,108384582.38833872
95,0.0
512,0.0
1716,108384582.38833872
2,1, 1,21, 0,17, 0.00,60.00,WinterDesignDay
59,108366582.38833872
95,0.0
512,0.0
1716,108366582.38833872
2,1, 1,21, 0,18, 0.00,60.00,WinterDesignDay
59,112759242.38833872
95,0.0
512,0.0
1716,112759242.38833872
2,1, 1,21, 0,19, 0.00,60.00,WinterDesignDay
59,127247982.38833867
95,0.0
512,0.0
1716,127247982.38833867
2,1, 1,21, 0,20, 0.00,60.00,WinterDesignDay
59,119433102.38833869
95,0.0
512,0.0
1716,119433102.38833869
2,1, 1,21, 0,21, 0.00,60.00,WinterDesignDay
59,119433102.38833869
95,0.0
512,0.0
1716,119433102.38833869
2,1, 1,21, 0,22, 0.00,60.00,WinterDesignDay
59,119433102.38833869
95,0.0
512,0.0
1716,119433102.38833869
2,1, 1,21, 0,23, 0.00,60.00,WinterDesignDay
59,119433102.38833869
95,0.0
512,0.0
1716,119433102.38833869
2,1, 1,21, 0,24, 0.00,60.00,WinterDesignDay
59,119433102.38833869
95,0.0
512,0.0
1716,119433102.38833869
1,ATLANTA-HARTSFIELD.JACKSON.INTL.AP_GA_USA ANN CLG .4% CONDNS DB=>MWB,  30.58, -96.37,  -6.00,  96.00
2,1, 7,21, 0, 1, 0.00,60.00,SummerDesignDay
59,515946606.851831
95,152517470.7542746
512,224813060.55296675
1716,515946606.851831
2,1, 7,21, 0, 2, 0.00,60.00,SummerDesignDay
59,519158818.78877887
95,152517470.7542746
512,224813060.55296675
1716,519158818.78877887
2,1, 7,21, 0, 3, 0.00,60.00,SummerDesignDay
59,519404818.78877887
95,152517470.7542746
512,224813060.55296675
1716,519404818.78877887
2,1, 7,21, 0, 4, 0.00,60.00,SummerDesignDay
59,519500818.78877887
95,152517470.7542746
512,224813060.55296675
1716,519500818.78877887
2,1, 7,21, 0, 5, 0.00,60.00,SummerDesignDay
59,519584818.78877887
95,152517470.7542746
512,224813060.55296675
1716,519584818.78877887
2,1, 7,21, 0, 6, 0.00,60.00,SummerDesignDay
59,516029617.28675076
95,151690649.25224645
512,224813060.55296675
1716,516029617.28675076
2,1, 7,21, 0, 7, 0.00,60.00,SummerDesignDay
59,479006544.5978222
95,126362702.63622755
512,224813060.55296675
1716,479006544.5978222
2,1, 7,21, 0, 8, 0.00,60.00,SummerDesignDay
59,474722326.5343754
95,120208349.70381399
512,224813060.55296675
1716,474722326.5343754
2,1, 7,21, 0, 9, 0.00,60.00,SummerDesignDay
59,461640237.4194608
95,119991185.40467149
512,224813060.55296675
1716,461640237.4194608
2,1, 7,21, 0,10, 0.00,60.00,SummerDesignDay
59,461640237.4194608
95,119991185.40467149
512,224813060.55296675
1716,461640237.4194608
2,1, 7,21, 0,11, 0.00,60.00,SummerDesignDay
59,461664237.4194608
95,119991185.40467149
512,224813060.55296675
1716,461664237.4194608
2,1, 7,21, 0,12, 0.00,60.00,SummerDesignDay
59,461640237.4194608
95,119991185.40467149
512,224813060.55296675
1716,461640237.4194608
2,1, 7,21, 0,13, 0.00,60.00,SummerDesignDay
59,461640237.4194608
95,119991185.40467149
512,224813060.55296675
1716,461640237.4194608
2,1, 7,21, 0,14, 0.00,60.00,SummerDesignDay
59,461724237.4194608
95,119991185.40467149
512,224813060.55296675
1716,461724237.4194608
2,1, 7,21, 0,15, 0.00,60.00,SummerDesignDay
59,461742237.4194608
95,119991185.40467149
512,224813060.55296675
1716,461742237.4194608
2,1, 7,21, 0,16, 0.00,60.00,SummerDesignDay
59,461682237.4194608
95,119991185.40467149
512,224813060.55296675
1716,461682237.4194608
2,1, 7,21, 0,17, 0.00,60.00,SummerDesignDay
59,461736237.4194608
95,119991185.40467149
512,224813060.55296675
1716,461736237.4194608
2,1, 7,21, 0,18, 0.00,60.00,SummerDesignDay
59,461882663.6254389
95,120173611.6106496
512,224813060.55296675
1716,461882663.6254389
2,1, 7,21, 0,19, 0.00,60.00,SummerDesignDay
59,467273252.2638298
95,125624200.24904058
512,224813060.55296675
1716,467273252.2638298
2,1, 7,21, 0,20, 0.00,60.00,SummerDesignDay
59,499741993.16823688
95,151287087.15344776
512,224813060.55296675
1716,499741993.16823688
2,1, 7,21, 0,21, 0.00,60.00,SummerDesignDay
59,505203042.76906368
95,152517470.7542746
512,224813060.55296675
1716,505203042.76906368
2,1, 7,21, 0,22, 0.00,60.00,SummerDesignDay
59,505203042.76906368
95,152517470.7542746
512,224813060.55296675
1716,505203042.76906368
2,1, 7,21, 0,23, 0.00,60.00,SummerDesignDay
59,505203042.76906368
95,152517470.7542746
512,224813060.55296675
1716,505203042.76906368
2,1, 7,21, 0,24, 0.00,60.00,SummerDesignDay
59,505203042.76906368
95,152517470.7542746
512,224813060.55296675
1716,505203042.76906368
1,RUNPERIOD 1,  30.58, -96.37,  -6.00,  96.00
2,1, 7, 1, 0, 1, 0.00,60.00,Monday
59,69669594.92153207
95,7625873.53771374
512,44533202.00181081
1716,69669594.92153207
2,1, 7, 1, 0, 2, 0.00,60.00,Monday
59,73072113.52567949
95,7625873.53771374
512,44533202.00181081
1716,73072113.52567949
2,1, 7, 1, 0, 3, 0.00,60.00,Monday
59,77932854.38874717
95,7625873.53771374
512,44533202.00181081
1716,77932854.38874717
2,1, 7, 1, 0, 4, 0.00,60.00,Monday
59,84275817.51073525
95,7625873.53771374
512,44533202.00181081
1716,84275817.51073525
2,1, 7, 1, 0, 5, 0.00,60.00,Monday
59,82871595.25181495
95,7625873.53771374
512,44533202.00181081
1716,82871595.25181495
2,1, 7, 1, 0, 6, 0.00,60.00,Monday
59,94068128.34973943
95,15092791.254729994
512,44533202.00181081
1716,94068128.34973943
2,1, 7, 1, 0, 7, 0.00,60.00,Monday
59,99591527.7246931
95,11112430.75318237
512,55180531.87831209
1716,99591527.7246931
2,1, 7, 1, 0, 8, 0.00,60.00,Monday
59,256756982.74942673
95,31191592.322054026
512,95796493.41677362
1716,256756982.74942673
2,1, 7, 1, 0, 9, 0.00,60.00,Monday
59,415552075.4098825
95,93124323.85391505
512,204227663.7591696
1716,415552075.4098825
2,1, 7, 1, 0,10, 0.00,60.00,Monday
59,384016121.9320497
95,93124323.85391505
512,174055806.61631225
1716,384016121.9320497
2,1, 7, 1, 0,11, 0.00,60.00,Monday
59,377053385.6683126
95,93124323.85391505
512,167093070.3525762
1716,377053385.6683126
2,1, 7, 1, 0,12, 0.00,60.00,Monday
59,384016121.9320497
95,93124323.85391505
512,174055806.61631225
1716,384016121.9320497
2,1, 7, 1, 0,13, 0.00,60.00,Monday
59,387969829.62181189
95,93124323.85391505
512,177667514.30607493
1716,387969829.62181189
2,1, 7, 1, 0,14, 0.00,60.00,Monday
59,389842402.151829
95,93124323.85391505
512,179858086.83609239
1716,389842402.151829
2,1, 7, 1, 0,15, 0.00,60.00,Monday
59,377053385.6683126
95,93124323.85391505
512,167093070.3525762
1716,377053385.6683126
2,1, 7, 1, 0,16, 0.00,60.00,Monday
59,377053385.6683126
95,93124323.85391505
512,167093070.3525762
1716,377053385.6683126
2,1, 7, 1, 0,17, 0.00,60.00,Monday
59,387617490.0639177
95,93124323.85391505
512,177537174.74818046
1716,387617490.0639177
2,1, 7, 1, 0,18, 0.00,60.00,Monday
59,309925221.0090954
95,51817289.974108669
512,140923939.57316477
1716,309925221.0090954
2,1, 7, 1, 0,19, 0.00,60.00,Monday
59,218271951.86191369
95,32317955.994306864
512,69106004.40578471
1716,218271951.86191369
2,1, 7, 1, 0,20, 0.00,60.00,Monday
59,230097013.33955053
95,38659963.2797442
512,59822356.054136309
1716,230097013.33955053
2,1, 7, 1, 0,21, 0.00,60.00,Monday
59,230637967.43140648
95,26303943.895732464
512,59822356.054136309
1716,230637967.4314065
2,1, 7, 1, 0,22, 0.00,60.00,Monday
59,121664987.44378446
95,26303943.895732464
512,55180531.87831209
1716,121664987.44378445
2,1, 7, 1, 0,23, 0.00,60.00,Monday
59,112811588.91937694
95,13151971.947866232
512,55180531.87831209
1716,112811588.91937694
2,1, 7, 1, 0,24, 0.00,60.00,Monday
59,103589602.94544402
95,6575985.973933116
512,55180531.87831209
1716,103589602.94544402
2,2, 7, 2, 0, 1, 0.00,60.00,Tuesday
59,69669594.92153207
95,7625873.53771374
512,44533202.00181081
1716,69669594.92153207
2,2, 7, 2, 0, 2, 0.00,60.00,Tuesday
59,72586039.43937274
95,7625873.53771374
512,44533202.00181081
1716,72586039.43937274
2,2, 7, 2, 0, 3, 0.00,60.00,Tuesday
59,76960706.21613363
95,7625873.53771374
512,44533202.00181081
1716,76960706.21613363
2,2, 7, 2, 0, 4, 0.00,60.00,Tuesday
59,83279669.33812171
95,7625873.53771374
512,44533202.00181081
1716,83279669.33812171
2,2, 7, 2, 0, 5, 0.00,60.00,Tuesday
59,77932854.38874729
95,7625873.53771374
512,44533202.00181081
1716,77932854.38874728
2,2, 7, 2, 0, 6, 0.00,60.00,Tuesday
59,85333750.61691509
95,15251747.07542748
512,44533202.00181081
1716,85333750.61691509
2,2, 7, 2, 0, 7, 0.00,60.00,Tuesday
59,99491244.55297615
95,12296147.58146537
512,55180531.87831209
1716,99491244.55297615
2,2, 7, 2, 0, 8, 0.00,60.00,Tuesday
59,258817882.36188919
95,31628414.8665353
512,95796493.41677362
1716,258817882.36188919
2,2, 7, 2, 0, 9, 0.00,60.00,Tuesday
59,425311035.62805286
95,94794706.06222737
512,204227663.7591696
1716,425311035.6280528
2,2, 7, 2, 0,10, 0.00,60.00,Tuesday
59,384223959.8484753
95,93332161.77034077
512,174055806.61631225
1716,384223959.8484753
2,2, 7, 2, 0,11, 0.00,60.00,Tuesday
59,377053385.6683126
95,93124323.85391505
512,167093070.3525762
1716,377053385.6683126
2,2, 7, 2, 0,12, 0.00,60.00,Tuesday
59,384016121.9320497
95,93124323.85391505
512,174055806.61631225
1716,384016121.9320497
2,2, 7, 2, 0,13, 0.00,60.00,Tuesday
59,387957829.62181189
95,93124323.85391505
512,177667514.30607493
1716,387957829.62181189
2,2, 7, 2, 0,14, 0.00,60.00,Tuesday
59,389836402.151829
95,93124323.85391505
512,179858086.83609239
1716,389836402.151829
2,2, 7, 2, 0,15, 0.00,60.00,Tuesday
59,377053385.6683126
95,93124323.85391505
512,167093070.3525762
1716,377053385.6683126
2,2, 7, 2, 0,16, 0.00,60.00,Tuesday
59,377053385.6683126
95,93124323.85391505
512,167093070.3525762
1716,377053385.6683126
2,2, 7, 2, 0,17, 0.00,60.00,Tuesday
59,387557490.0639177
95,93124323.85391505
512,177537174.74818046
1716,387557490.0639177
2,2, 7, 2, 0,18, 0.00,60.00,Tuesday
59,309901616.7365904
95,51793685.701603759
512,140923939.57316477
1716,309901616.7365904
2,2, 7, 2, 0,19, 0.00,60.00,Tuesday
59,218386094.39617978
95,32426098.52857293
512,69106004.40578471
1716,218386094.3961797
2,2, 7, 2, 0,20, 0.00,60.00,Tuesday
59,221132358.3507969
95,38403924.834838759
512,59822356.054136309
1716,221132358.35079695
2,2, 7, 2, 0,21, 0.00,60.00,Tuesday
59,213998811.41169057
95,26303943.895732464
512,59822356.054136309
1716,213998811.41169057
2,2, 7, 2, 0,22, 0.00,60.00,Tuesday
59,123083190.4357095
95,26303943.895732464
512,55180531.87831209
1716,123083190.4357095
2,2, 7, 2, 0,23, 0.00,60.00,Tuesday
59,113033588.91937694
95,13151971.947866232
512,55180531.87831209
1716,113033588.91937694
2,2, 7, 2, 0,24, 0.00,60.00,Tuesday
59,104285602.94544402
95,6575985.973933116
512,55180531.87831209
1716,104285602.94544402
End of Data
 Number of Records Written=         384
