Program Version,EnergyPlus, Version 9.4.0-998c4b761e, YMD=2021.07.14 16:39
1,5,Environment Title[],Latitude[deg],Longitude[deg],Time Zone[],Elevation[m]
2,8,Day of Simulation[],Month[],Day of Month[],DST Indicator[1=yes 0=no],Hour[],StartMinute[],EndMinute[],DayType
3,5,Cumulative Day of Simulation[],Month[],Day of Month[],DST Indicator[1=yes 0=no],DayType  ! When Daily Report Variables Requested
4,2,Cumulative Days of Simulation[],Month[]  ! When Monthly Report Variables Requested
5,1,Cumulative Days of Simulation[] ! When Run Period Report Variables Requested
6,1,Calendar Year of Simulation[] ! When Annual Report Variables Requested
770,1,PERIMETER_TOP_ZN_4,Zone Mean Air Temperature [C] !Hourly
2050,1,PERI1_TOP_LOTEMP,Zone Radiant HVAC Cooling Rate [W] !Hourly
End of Data Dictionary
1,ATLANTA-HARTSFIELD.JACKSON.INTL.AP_GA_USA ANN HTG 99.6% CONDNS DB,  30.58, -96.37,  -6.00,  96.00
2,1, 1,21, 0, 1, 0.00,60.00,WinterDesignDay
770,18.253225857863798
2050,0.0
2,1, 1,21, 0, 2, 0.00,60.00,WinterDesignDay
770,18.25223853812765
2050,0.0
2,1, 1,21, 0, 3, 0.00,60.00,WinterDesignDay
770,18.251174052359464
2050,0.0
2,1, 1,21, 0, 4, 0.00,60.00,WinterDesignDay
770,18.250052389394765
2050,0.0
2,1, 1,21, 0, 5, 0.00,60.00,WinterDesignDay
770,18.248890730210797
2050,0.0
2,1, 1,21, 0, 6, 0.00,60.00,WinterDesignDay
770,18.24770334104763
2050,0.0
2,1, 1,21, 0, 7, 0.00,60.00,WinterDesignDay
770,18.634515987459289
2050,0.0
2,1, 1,21, 0, 8, 0.00,60.00,WinterDesignDay
770,18.524630880538319
2050,0.0
2,1, 1,21, 0, 9, 0.00,60.00,WinterDesignDay
770,18.51009407888769
2050,0.0
2,1, 1,21, 0,10, 0.00,60.00,WinterDesignDay
770,18.509983507164376
2050,0.0
2,1, 1,21, 0,11, 0.00,60.00,WinterDesignDay
770,18.510200739430326
2050,0.0
2,1, 1,21, 0,12, 0.00,60.00,WinterDesignDay
770,18.510426559391143
2050,0.0
2,1, 1,21, 0,13, 0.00,60.00,WinterDesignDay
770,18.51074936651973
2050,0.0
2,1, 1,21, 0,14, 0.00,60.00,WinterDesignDay
770,18.5111721412886
2050,0.0
2,1, 1,21, 0,15, 0.00,60.00,WinterDesignDay
770,18.511676606730917
2050,0.0
2,1, 1,21, 0,16, 0.00,60.00,WinterDesignDay
770,18.512243762395984
2050,0.0
2,1, 1,21, 0,17, 0.00,60.00,WinterDesignDay
770,18.51285724815017
2050,0.0
2,1, 1,21, 0,18, 0.00,60.00,WinterDesignDay
770,18.513503425412116
2050,0.0
2,1, 1,21, 0,19, 0.00,60.00,WinterDesignDay
770,18.127590407319404
2050,0.0
2,1, 1,21, 0,20, 0.00,60.00,WinterDesignDay
770,18.233799865923964
2050,0.0
2,1, 1,21, 0,21, 0.00,60.00,WinterDesignDay
770,18.24879413911428
2050,0.0
2,1, 1,21, 0,22, 0.00,60.00,WinterDesignDay
770,18.248605195304678
2050,0.0
2,1, 1,21, 0,23, 0.00,60.00,WinterDesignDay
770,18.247933144219738
2050,0.0
2,1, 1,21, 0,24, 0.00,60.00,WinterDesignDay
770,18.247251763439829
2050,0.0
1,ATLANTA-HARTSFIELD.JACKSON.INTL.AP_GA_USA ANN CLG .4% CONDNS DB=>MWB,  30.58, -96.37,  -6.00,  96.00
2,1, 7,21, 0, 1, 0.00,60.00,SummerDesignDay
770,24.42026012923167
2050,10788.012767155773
2,1, 7,21, 0, 2, 0.00,60.00,SummerDesignDay
770,23.92117406058054
2050,7816.318690325729
2,1, 7,21, 0, 3, 0.00,60.00,SummerDesignDay
770,23.687617388502127
2050,6780.758379167252
2,1, 7,21, 0, 4, 0.00,60.00,SummerDesignDay
770,23.543054105472373
2050,6389.172350476712
2,1, 7,21, 0, 5, 0.00,60.00,SummerDesignDay
770,23.429466897305056
2050,6145.776115385989
2,1, 7,21, 0, 6, 0.00,60.00,SummerDesignDay
770,23.345780444667807
2050,6008.89682906184
2,1, 7,21, 0, 7, 0.00,60.00,SummerDesignDay
770,23.669579282706189
2050,7339.766617137256
2,1, 7,21, 0, 8, 0.00,60.00,SummerDesignDay
770,23.852479854145636
2050,8184.349662489776
2,1, 7,21, 0, 9, 0.00,60.00,SummerDesignDay
770,24.140354620224416
2050,9645.379798358923
2,1, 7,21, 0,10, 0.00,60.00,SummerDesignDay
770,24.444843752191365
2050,11087.25817349605
2,1, 7,21, 0,11, 0.00,60.00,SummerDesignDay
770,24.68017915065554
2050,11897.995114540983
2,1, 7,21, 0,12, 0.00,60.00,SummerDesignDay
770,24.900489355918049
2050,11846.554602006672
2,1, 7,21, 0,13, 0.00,60.00,SummerDesignDay
770,25.13980942280573
2050,11854.4723482676
2,1, 7,21, 0,14, 0.00,60.00,SummerDesignDay
770,26.011610312420087
2050,11936.842965562753
2,1, 7,21, 0,15, 0.00,60.00,SummerDesignDay
770,27.61486727275641
2050,11973.512969827916
2,1, 7,21, 0,16, 0.00,60.00,SummerDesignDay
770,29.022408095570659
2050,11965.529889449239
2,1, 7,21, 0,17, 0.00,60.00,SummerDesignDay
770,30.069438725699344
2050,12023.791751056904
2,1, 7,21, 0,18, 0.00,60.00,SummerDesignDay
770,30.65510123872901
2050,11922.192978273977
2,1, 7,21, 0,19, 0.00,60.00,SummerDesignDay
770,30.10339812721313
2050,11754.842585080889
2,1, 7,21, 0,20, 0.00,60.00,SummerDesignDay
770,28.56584814573127
2050,11588.619792003467
2,1, 7,21, 0,21, 0.00,60.00,SummerDesignDay
770,27.391817828325718
2050,11655.7428694079
2,1, 7,21, 0,22, 0.00,60.00,SummerDesignDay
770,26.49393873745701
2050,11738.531809779852
2,1, 7,21, 0,23, 0.00,60.00,SummerDesignDay
770,25.6576960998697
2050,11783.220747624418
2,1, 7,21, 0,24, 0.00,60.00,SummerDesignDay
770,25.121657490846947
2050,11742.136775925412
1,RUNPERIOD 1,  30.58, -96.37,  -6.00,  96.00
2,1, 7, 1, 0, 1, 0.00,60.00,Monday
770,22.930044067180768
2050,0.0
2,1, 7, 1, 0, 2, 0.00,60.00,Monday
770,22.966394812367775
2050,0.0
2,1, 7, 1, 0, 3, 0.00,60.00,Monday
770,22.97502051303529
2050,900.5509667014261
2,1, 7, 1, 0, 4, 0.00,60.00,Monday
770,22.974213443082968
2050,1364.2146475017176
2,1, 7, 1, 0, 5, 0.00,60.00,Monday
770,22.97852412535052
2050,1042.8778058047108
2,1, 7, 1, 0, 6, 0.00,60.00,Monday
770,22.975606898575074
2050,213.54827023087624
2,1, 7, 1, 0, 7, 0.00,60.00,Monday
770,23.007011764241918
2050,7220.914585865375
2,1, 7, 1, 0, 8, 0.00,60.00,Monday
770,23.10005376052238
2050,11191.95201844168
2,1, 7, 1, 0, 9, 0.00,60.00,Monday
770,23.883824383596808
2050,11985.37700556775
2,1, 7, 1, 0,10, 0.00,60.00,Monday
770,24.201216955111126
2050,11794.057838191653
2,1, 7, 1, 0,11, 0.00,60.00,Monday
770,24.39433060847221
2050,11811.430421589665
2,1, 7, 1, 0,12, 0.00,60.00,Monday
770,24.56267487813148
2050,11824.610217794687
2,1, 7, 1, 0,13, 0.00,60.00,Monday
770,24.46553809794399
2050,11831.360581979732
2,1, 7, 1, 0,14, 0.00,60.00,Monday
770,25.2303903918089
2050,11887.80935248007
2,1, 7, 1, 0,15, 0.00,60.00,Monday
770,26.210927239450397
2050,11912.990531690904
2,1, 7, 1, 0,16, 0.00,60.00,Monday
770,27.612620091685725
2050,11955.204825318517
2,1, 7, 1, 0,17, 0.00,60.00,Monday
770,28.498148198230206
2050,11949.40037558927
2,1, 7, 1, 0,18, 0.00,60.00,Monday
770,28.582889413013949
2050,11932.009429445405
2,1, 7, 1, 0,19, 0.00,60.00,Monday
770,27.58368931887772
2050,11757.998308883454
2,1, 7, 1, 0,20, 0.00,60.00,Monday
770,25.885724440104636
2050,11641.589478476597
2,1, 7, 1, 0,21, 0.00,60.00,Monday
770,24.36194152295743
2050,11689.325971746028
2,1, 7, 1, 0,22, 0.00,60.00,Monday
770,23.54693944275796
2050,11600.301804287992
2,1, 7, 1, 0,23, 0.00,60.00,Monday
770,23.1572131560877
2050,7712.915224897408
2,1, 7, 1, 0,24, 0.00,60.00,Monday
770,22.97882628085705
2050,2446.2519802597296
2,2, 7, 2, 0, 1, 0.00,60.00,Tuesday
770,22.924477318962823
2050,0.0
2,2, 7, 2, 0, 2, 0.00,60.00,Tuesday
770,22.933057427117963
2050,0.0
2,2, 7, 2, 0, 3, 0.00,60.00,Tuesday
770,22.920597192423
2050,0.0
2,2, 7, 2, 0, 4, 0.00,60.00,Tuesday
770,22.93290209303808
2050,0.0
2,2, 7, 2, 0, 5, 0.00,60.00,Tuesday
770,22.955275597670476
2050,0.0
2,2, 7, 2, 0, 6, 0.00,60.00,Tuesday
770,22.958867315649049
2050,1196.0022498045813
2,2, 7, 2, 0, 7, 0.00,60.00,Tuesday
770,22.993156515562086
2050,5418.953280089613
2,2, 7, 2, 0, 8, 0.00,60.00,Tuesday
770,23.048251676939665
2050,9599.055483505897
2,2, 7, 2, 0, 9, 0.00,60.00,Tuesday
770,23.730487199177
2050,11840.60777515277
2,2, 7, 2, 0,10, 0.00,60.00,Tuesday
770,24.064022187255128
2050,11783.645818999476
2,2, 7, 2, 0,11, 0.00,60.00,Tuesday
770,24.168412094651118
2050,11788.07396442387
2,2, 7, 2, 0,12, 0.00,60.00,Tuesday
770,24.193885244345674
2050,11797.196550211263
2,2, 7, 2, 0,13, 0.00,60.00,Tuesday
770,24.277317012217666
2050,11841.083432279742
2,2, 7, 2, 0,14, 0.00,60.00,Tuesday
770,25.032652924529154
2050,11893.417115111502
2,2, 7, 2, 0,15, 0.00,60.00,Tuesday
770,26.506959369171399
2050,11963.904557725302
2,2, 7, 2, 0,16, 0.00,60.00,Tuesday
770,28.12445820015255
2050,11971.633547243106
2,2, 7, 2, 0,17, 0.00,60.00,Tuesday
770,28.888367275516904
2050,11986.137152432195
2,2, 7, 2, 0,18, 0.00,60.00,Tuesday
770,29.049003673076095
2050,11922.690598184854
2,2, 7, 2, 0,19, 0.00,60.00,Tuesday
770,28.80031743233457
2050,11825.773698012497
2,2, 7, 2, 0,20, 0.00,60.00,Tuesday
770,27.111916286645358
2050,11621.762185992633
2,2, 7, 2, 0,21, 0.00,60.00,Tuesday
770,25.2474873482966
2050,11607.861221494994
2,2, 7, 2, 0,22, 0.00,60.00,Tuesday
770,24.116972214603505
2050,11738.206063759724
2,2, 7, 2, 0,23, 0.00,60.00,Tuesday
770,23.588416667606496
2050,11407.23855306922
2,2, 7, 2, 0,24, 0.00,60.00,Tuesday
770,23.089492320778779
2050,5453.786379609088
End of Data
 Number of Records Written=         192
