Program Version,EnergyPlus, Version 9.5.0-de239b2e5f, YMD=2021.07.16 01:46
1,5,Environment Title[],Latitude[deg],Longitude[deg],Time Zone[],Elevation[m]
2,8,Day of Simulation[],Month[],Day of Month[],DST Indicator[1=yes 0=no],Hour[],StartMinute[],EndMinute[],DayType
3,5,Cumulative Day of Simulation[],Month[],Day of Month[],DST Indicator[1=yes 0=no],DayType  ! When Daily Report Variables Requested
4,2,Cumulative Days of Simulation[],Month[]  ! When Monthly Report Variables Requested
5,1,Cumulative Days of Simulation[] ! When Run Period Report Variables Requested
6,1,Calendar Year of Simulation[] ! When Annual Report Variables Requested
7,1,Environment,Site Outdoor Air Drybulb Temperature [C] !Hourly
652,1,PERIMETER_BOT_ZN_1,Zone Mean Air Temperature [C] !Hourly
1717,1,PERI1_TOP_LOTEMP,Zone Radiant HVAC Cooling Rate [W] !Hourly
1720,1,PERI1_TOP_LOTEMP,Zone Radiant HVAC Mass Flow Rate [kg/s] !Hourly
1721,1,PERI1_TOP_LOTEMP,Zone Radiant HVAC Injection Mass Flow Rate [kg/s] !Hourly
1722,1,PERI1_TOP_LOTEMP,Zone Radiant HVAC Recirculation Mass Flow Rate [kg/s] !Hourly
1723,1,PERI1_TOP_LOTEMP,Zone Radiant HVAC Inlet Temperature [C] !Hourly
1724,1,PERI1_TOP_LOTEMP,Zone Radiant HVAC Outlet Temperature [C] !Hourly
1730,1,PERI2_TOP_LOTEMP,Zone Radiant HVAC Outlet Temperature [C] !Hourly
1952,1,PERI1_TOP_LOTEMP_CHW_INLET,System Node Temperature [C] !Hourly
1953,1,PERI1_TOP_LOTEMP_CHW_OUTLET,System Node Temperature [C] !Hourly
End of Data Dictionary
1,ATLANTA-HARTSFIELD.JACKSON.INTL.AP_GA_USA ANN HTG 99.6% CONDNS DB,  33.63, -84.43,  -5.00, 308.00
2,1, 1,21, 0, 1, 0.00,60.00,WinterDesignDay
7,-6.300000000000007
652,16.051292496802814
1717,0.0
1720,0.27529600000000006
1721,0.04281524426242808
1722,0.23248075573757194
1723,30.020167904309646
1724,28.900128674779169
1730,40.847851297250077
1952,12.200000000024913
1953,12.200000000024913
2,1, 1,21, 0, 2, 0.00,60.00,WinterDesignDay
7,-6.300000000000007
652,16.04967177145685
1717,0.0
1720,0.31462400000000009
1721,0.048944607527027967
1722,0.265679392472972
1723,30.043211981427523
1724,28.76338242859434
1730,40.847168903872098
1952,12.200000000024913
1953,12.200000000024913
2,1, 1,21, 0, 3, 0.00,60.00,WinterDesignDay
7,-6.300000000000007
652,16.049873333433469
1717,0.0
1720,0.27529600000000006
1721,0.042885961452911899
1722,0.2324100385470881
1723,30.025030187349829
1724,28.903146765888093
1730,40.84655082405357
1952,12.200000000024913
1953,12.200000000024913
2,1, 1,21, 0, 4, 0.00,60.00,WinterDesignDay
7,-6.300000000000007
652,16.049194020368377
1717,0.0
1720,0.27529600000000006
1721,0.04291860661278943
1722,0.23237739338721054
1723,30.034713336519336
1724,28.911966290478355
1730,40.845989784274717
1952,12.200000000024913
1953,12.200000000024913
2,1, 1,21, 0, 5, 0.00,60.00,WinterDesignDay
7,-6.300000000000007
652,16.049710385137435
1717,0.0
1720,0.27529600000000006
1721,0.04288610733281196
1722,0.232409892667188
1723,30.03369910955464
1724,28.9117862354823
1730,40.84547919047124
1952,12.200000000024913
1953,12.200000000024913
2,1, 1,21, 0, 6, 0.00,60.00,WinterDesignDay
7,-6.300000000000007
652,16.04868260858905
1717,0.0
1720,0.27529600000000006
1721,0.04292796580659044
1722,0.23236803419340958
1723,30.041849781197269
1724,28.91884102429573
1730,40.84501400041586
1952,12.200000000024913
1953,12.200000000024913
2,1, 1,21, 0, 7, 0.00,60.00,WinterDesignDay
7,-6.300000000000007
652,16.092909520184798
1717,0.0
1720,0.039328
1721,0.006324441658241112
1722,0.03300355834175889
1723,30.006427895501444
1724,29.83997513487344
1730,40.856344972096348
1952,12.200000000024913
1953,12.200000000024913
2,1, 1,21, 0, 8, 0.00,60.00,WinterDesignDay
7,-6.300000000000007
652,16.05122271762102
1717,0.0
1720,0.117984
1721,0.018954354716360225
1722,0.09902964528363979
1723,30.01369966641479
1724,29.514828843683764
1730,40.86430032199745
1952,12.200000000024913
1953,12.200000000024913
2,1, 1,21, 0, 9, 0.00,60.00,WinterDesignDay
7,-6.300000000000007
652,16.058710730765893
1717,0.0
1720,0.078656
1721,0.012647500816686702
1722,0.0660084991833133
1723,30.027164079181725
1724,29.694305537469693
1730,40.86644871814018
1952,12.200000000024913
1953,12.200000000024913
2,1, 1,21, 0,10, 0.00,60.00,WinterDesignDay
7,-6.300000000000007
652,16.053794298409128
1717,0.0
1720,0.117984
1721,0.018946455982614086
1722,0.0990375440173859
1723,30.01645956565109
1724,29.517855005775293
1730,40.86769094769845
1952,12.200000000024913
1953,12.200000000024913
2,1, 1,21, 0,11, 0.00,60.00,WinterDesignDay
7,-6.300000000000007
652,16.04848095332204
1717,0.0
1720,0.117984
1721,0.018975863350880846
1722,0.09900813664911916
1723,30.029779130425248
1724,29.53042249918558
1730,40.86860882256513
1952,12.200000000024913
1953,12.200000000024913
2,1, 1,21, 0,12, 0.00,60.00,WinterDesignDay
7,-6.300000000000007
652,16.053891404911579
1717,0.0
1720,0.078656
1721,0.01262186014087708
1722,0.06603413985912292
1723,30.02005702291177
1724,29.687920087021668
1730,40.869374818012797
1952,12.200000000024913
1953,12.200000000024913
2,1, 1,21, 0,13, 0.00,60.00,WinterDesignDay
7,-6.300000000000007
652,16.057687116175669
1717,0.0
1720,0.117984
1721,0.018961662948764749
1722,0.09902233705123526
1723,30.03194074665174
1724,29.532993286863026
1730,40.87004519108023
1952,12.200000000024913
1953,12.200000000024913
2,1, 1,21, 0,14, 0.00,60.00,WinterDesignDay
7,-6.300000000000007
652,16.052163085869624
1717,0.0
1720,0.117984
1721,0.018978985360011696
1722,0.09900501463998832
1723,30.03416826601497
1724,29.534767825245017
1730,40.87064133792578
1952,12.200000000024913
1953,12.200000000024913
2,1, 1,21, 0,15, 0.00,60.00,WinterDesignDay
7,-6.300000000000007
652,16.051593652584953
1717,0.0
1720,0.117984
1721,0.018952233793226328
1722,0.09903176620677368
1723,30.019674300690875
1724,29.520978777540394
1730,40.87117482313094
1952,12.200000000024913
1953,12.200000000024913
2,1, 1,21, 0,16, 0.00,60.00,WinterDesignDay
7,-6.300000000000007
652,16.05849190266736
1717,0.0
1720,0.078656
1721,0.012614663345128046
1722,0.06604133665487196
1723,30.026627110545826
1724,29.69469779944956
1730,40.87165307791413
1952,12.200000000024913
1953,12.200000000024913
2,1, 1,21, 0,17, 0.00,60.00,WinterDesignDay
7,-6.300000000000007
652,16.05733374460486
1717,0.0
1720,0.117984
1721,0.01894772976380502
1722,0.09903627023619498
1723,30.020981827984316
1724,29.52241480702198
1730,40.87208217593514
1952,12.200000000024913
1953,12.200000000024913
2,1, 1,21, 0,18, 0.00,60.00,WinterDesignDay
7,-6.300000000000007
652,16.052558928224778
1717,0.0
1720,0.117984
1721,0.01894520272526833
1722,0.09903879727473168
1723,30.03208944524781
1724,29.533594614361485
1730,40.87246756711192
1952,12.200000000024913
1953,12.200000000024913
2,1, 1,21, 0,19, 0.00,60.00,WinterDesignDay
7,-6.300000000000007
652,16.041961590605493
1717,0.0
1720,0.4326080000000001
1721,0.06767563811356901
1722,0.36493236188643099
1723,30.10789521648253
1724,28.338724410420867
1730,40.86101525428719
1952,12.200000000024913
1953,12.200000000024913
2,1, 1,21, 0,20, 0.00,60.00,WinterDesignDay
7,-6.300000000000007
652,16.045137506644087
1717,0.0
1720,0.23596800000000005
1721,0.03676693528408565
1722,0.19920106471591435
1723,30.01636687635296
1724,29.054227000668719
1730,40.85297387898963
1952,12.200000000024913
1953,12.200000000024913
2,1, 1,21, 0,21, 0.00,60.00,WinterDesignDay
7,-6.300000000000007
652,16.037761904783687
1717,0.0
1720,0.27529600000000006
1721,0.04291853065112366
1722,0.23237746934887633
1723,30.012948393460886
1724,28.889563801887936
1730,40.85075114045448
1952,12.200000000024913
1953,12.200000000024913
2,1, 1,21, 0,22, 0.00,60.00,WinterDesignDay
7,-6.300000000000007
652,16.05198722233478
1717,0.0
1720,0.31462400000000009
1721,0.048992249381614349
1722,0.2656317506183857
1723,30.05472999261917
1724,28.773819185258657
1730,40.84943731519674
1952,12.200000000024913
1953,12.200000000024913
2,1, 1,21, 0,23, 0.00,60.00,WinterDesignDay
7,-6.300000000000007
652,16.05050458968803
1717,0.0
1720,0.31462400000000009
1721,0.04896775144555288
1722,0.2656562485544471
1723,30.04898491348731
1724,28.76860072204115
1730,40.84844890398689
1952,12.200000000024913
1953,12.200000000024913
2,1, 1,21, 0,24, 0.00,60.00,WinterDesignDay
7,-6.300000000000007
652,16.052974156462726
1717,0.0
1720,0.31462400000000009
1721,0.048822173435864497
1722,0.2658018265641355
1723,30.02327572230002
1724,28.746643652439908
1730,40.84761348825653
1952,12.200000000024913
1953,12.200000000024913
1,ATLANTA-HARTSFIELD.JACKSON.INTL.AP_GA_USA ANN CLG .4% CONDNS DB=>MWB,  33.63, -84.43,  -5.00, 308.00
2,1, 7,21, 0, 1, 0.00,60.00,SummerDesignDay
7,26.32025
652,19.17655478812883
1717,10105.15479151498
1720,2.3997551999999997
1721,0.494409325822457
1722,1.905345874177543
1723,11.017745448468308
1724,12.0227891046429
1730,28.954107970962754
1952,6.88344961403727
1953,7.942200868694166
2,1, 7,21, 0, 2, 0.00,60.00,SummerDesignDay
7,25.84683333333334
652,19.078779818728454
1717,9960.953283720144
1720,2.3997551999999997
1721,0.504218342048885
1722,1.895536857951115
1723,11.099839513641389
1724,12.090564412069395
1730,29.00114986026284
1952,7.119586882741276
1953,8.164020642429444
2,1, 7,21, 0, 3, 0.00,60.00,SummerDesignDay
7,25.515125
652,19.00223818319221
1717,9819.709347625245
1720,2.3997551999999997
1721,0.509236401599332
1722,1.8905187984006678
1723,11.163838661613714
1724,12.14053322720979
1730,29.066831282134144
1952,7.284739011941207
1953,8.315143423388509
2,1, 7,21, 0, 4, 0.00,60.00,SummerDesignDay
7,25.230124999999995
652,18.9377740597137
1717,9686.964645666802
1720,2.3997551999999997
1721,0.5133538171975542
1722,1.8864013828024458
1723,11.217679597409252
1724,12.181185880242915
1730,29.133638617264557
1952,7.425962837837838
1953,8.443179794778143
2,1, 7,21, 0, 5, 0.00,60.00,SummerDesignDay
7,24.993416666666673
652,18.881969739795964
1717,9568.109961513172
1720,2.3997551999999997
1721,0.5164273886039716
1722,1.8833278113960288
1723,11.264317897054296
1724,12.216015110561536
1730,29.199769535739294
1952,7.5440276756048709
1953,8.549436280715476
2,1, 7,21, 0, 6, 0.00,60.00,SummerDesignDay
7,24.996583333333335
652,18.843794419507178
1717,9507.675405746839
1720,2.3997551999999997
1721,0.5106509153675468
1722,1.8891042846324536
1723,11.296695006544282
1724,12.242389844610019
1730,29.32614361736818
1952,7.545573915632699
1953,8.5449806434146
2,1, 7,21, 0, 7, 0.00,60.00,SummerDesignDay
7,25.42804166666666
652,19.203685413844139
1717,10786.312991750112
1720,2.3997551999999997
1721,0.5703930560310936
1722,1.829362143968907
1723,11.003100403939023
1724,12.075886221335218
1730,30.148715892450626
1952,7.335703317964298
1953,8.46219650854682
2,1, 7,21, 0, 8, 0.00,60.00,SummerDesignDay
7,26.575958333333334
652,19.429060223443768
1717,11073.960219869223
1720,2.3997551999999997
1721,0.5464034926175199
1722,1.8533517073824802
1723,10.81312357268772
1724,11.914458209987809
1730,30.200197958487658
1952,6.840959799294429
1953,7.995998887673424
2,1, 7,21, 0, 9, 0.00,60.00,SummerDesignDay
7,28.287541666666664
652,19.757522349474486
1717,11951.011547928028
1720,2.3997551999999997
1721,0.5930017786952476
1722,1.8067534213047525
1723,10.540307140352797
1724,11.728773830322617
1730,30.200197958487658
1952,6.699999999999995
1953,7.9421669452342649
2,1, 7,21, 0,10, 0.00,60.00,SummerDesignDay
7,29.995958333333328
652,20.151085453540519
1717,12994.166529218994
1720,2.3997551999999997
1721,0.6724378370609695
1722,1.7273173629390304
1723,10.213888812694874
1724,11.505970597135712
1730,30.200197958487658
1952,6.699999999999993
1953,8.04577702050623
2,1, 7,21, 0,11, 0.00,60.00,SummerDesignDay
7,31.514374999999995
652,20.7019525425044
1717,14570.435910748003
1720,2.3997551999999997
1721,0.8011242549624636
1722,1.5986309450375354
1723,9.756766507649406
1724,11.205378094451465
1730,30.200197958487658
1952,6.699999999999993
1953,8.202299172253156
2,1, 7,21, 0,12, 0.00,60.00,SummerDesignDay
7,32.697916666666667
652,21.291107563914474
1717,16062.221667050866
1720,2.3997551999999997
1721,0.9526291654631651
1722,1.447126034536834
1723,9.264974297146845
1724,10.861639895059405
1730,30.200197958487658
1952,6.699999999999993
1953,8.350344365608147
2,1, 7,21, 0,13, 0.00,60.00,SummerDesignDay
7,33.55133333333333
652,21.750254414390736
1717,16971.57455550483
1720,2.3997551999999997
1721,1.0807640969951907
1722,1.3189911030048094
1723,8.879850638602248
1724,10.566694688679489
1730,30.200197958487658
1952,6.699999999999993
1953,8.440515914500465
2,1, 7,21, 0,14, 0.00,60.00,SummerDesignDay
7,34.16645833333333
652,22.001048121967228
1717,17194.383331024237
1720,2.3997551999999997
1721,1.1505345349291807
1722,1.249220665070819
1723,8.667690379483198
1724,10.376559366232737
1730,30.200197958487658
1952,6.699999999999993
1953,8.462537048987155
2,1, 7,21, 0,15, 0.00,60.00,SummerDesignDay
7,34.40000000000004
652,22.012920075815776
1717,16741.683510620547
1720,2.3997551999999997
1721,1.1391444752129232
1722,1.2606107247870773
1723,8.65441024918958
1724,10.3182799250802
1730,30.200197958487658
1952,6.699999999999993
1953,8.41753750020205
2,1, 7,21, 0,16, 0.00,60.00,SummerDesignDay
7,34.110250000000018
652,21.79729464625913
1717,15769.367598286632
1720,2.3997551999999997
1721,1.0521040941772369
1722,1.3476511058227632
1723,8.83133551972234
1724,10.398663693681922
1730,30.200197958487658
1952,6.699999999999993
1953,8.320999168870845
2,1, 7,21, 0,17, 0.00,60.00,SummerDesignDay
7,33.44366666666667
652,21.45603780038651
1717,14735.461131628028
1720,2.3997551999999997
1721,0.9395757845752499
1722,1.4601794154247503
1723,9.115158327845759
1724,10.579864742701786
1730,30.200197958487658
1952,6.699999999999993
1953,8.218382496874194
2,1, 7,21, 0,18, 0.00,60.00,SummerDesignDay
7,32.58708333333333
652,21.110911534182354
1717,13905.400114541653
1720,2.3997551999999997
1721,0.8439635917201753
1722,1.5557916082798247
1723,9.402732905265135
1724,10.785063899788213
1730,30.200197958487658
1952,6.699999999999993
1953,8.136012231857868
2,1, 7,21, 0,19, 0.00,60.00,SummerDesignDay
7,31.395624999999997
652,20.74979301031577
1717,13036.847827276422
1720,2.3997551999999997
1721,0.7538144213234613
1722,1.6459407786765388
1723,9.70323520870363
1724,10.999353573980028
1730,30.200197958487658
1952,6.699999999999993
1953,8.049804990748026
2,1, 7,21, 0,20, 0.00,60.00,SummerDesignDay
7,30.16379166666667
652,20.43392212233866
1717,12455.223401936024
1720,2.3997551999999997
1721,0.6882483741046604
1722,1.7115068258953395
1723,9.967961279202786
1724,11.206363832582485
1730,30.200197958487658
1952,6.699999999999993
1953,7.992093885541057
2,1, 7,21, 0,21, 0.00,60.00,SummerDesignDay
7,29.215374999999999
652,20.162169752705549
1717,11932.062613635635
1720,2.3997551999999997
1721,0.6358524320756022
1722,1.7639027679243982
1723,10.194876527821945
1724,11.381341943471476
1730,30.200197958487658
1952,6.699999999999993
1953,7.940160359360475
2,1, 7,21, 0,22, 0.00,60.00,SummerDesignDay
7,28.360375
652,19.956572171525648
1717,11581.994007531384
1720,2.3997551999999997
1721,0.60035695637955
1722,1.7993982436204488
1723,10.367056815307079
1724,11.518770003923214
1730,30.200197958487658
1952,6.699999999999993
1953,7.905410779741163
2,1, 7,21, 0,23, 0.00,60.00,SummerDesignDay
7,27.60195833333334
652,19.494505564981418
1717,10238.756203232797
1720,2.3997551999999997
1721,0.5080058031838192
1722,1.8917493968161812
1723,10.74776281163774
1724,11.766015126598284
1730,28.76823835398416
1952,6.699999999999993
1953,7.771955760830334
2,1, 7,21, 0,24, 0.00,60.00,SummerDesignDay
7,26.936958333333334
652,19.31454010936962
1717,10310.368507981122
1720,2.3997551999999997
1721,0.49559642958972047
1722,1.9041587704102792
1723,10.902749175253862
1724,11.928169334318449
1730,28.650585810814044
1952,6.7027041521533159
1953,7.7818301408132959
1,RUNPERIOD 1,  33.63, -84.43,  -5.00, 308.00
2,1, 7, 1, 0, 1, 0.00,60.00,Sunday
7,21.118333333333337
652,17.96928453719571
1717,6414.915025606523
1720,0.4399551200000001
1721,0.39048182642827869
1722,0.049473293571721328
1723,10.011138011881997
1724,10.64897013685904
1730,11.988906582402447
1952,9.600352245947115
1953,10.248027894648612
2,1, 7, 1, 0, 2, 0.00,60.00,Sunday
7,22.098333333333334
652,17.973047411248638
1717,4757.70691611159
1720,0.31996736
1721,0.252117975092082
1722,0.067849384907918
1723,10.0
1724,10.473056574775438
1730,11.988906582402447
1952,8.978157317196999
1953,9.458372818317497
2,1, 7, 1, 0, 3, 0.00,60.00,Sunday
7,21.949166666666675
652,17.973973786083488
1717,5360.972537231714
1720,0.35996328
1721,0.2878933725428262
1722,0.07206990745717379
1723,10.0
1724,10.53303899349914
1730,11.988906582402447
1952,9.045676163974586
1953,9.586768949611923
2,1, 7, 1, 0, 4, 0.00,60.00,Sunday
7,21.79833333333333
652,17.971993913486054
1717,5970.063305822836
1720,0.3999592
1721,0.3256175924051483
1722,0.07434160759485163
1723,10.0
1724,10.593600603913039
1730,11.988906582402447
1952,9.11502885101725
1953,9.717578112861617
2,1, 7, 1, 0, 5, 0.00,60.00,Sunday
7,21.700000000000025
652,17.973133758059555
1717,4890.881426980483
1720,0.31996736
1721,0.2647650823241398
1722,0.055202277675860219
1723,10.0
1724,10.48629805414141
1730,11.988906582402447
1952,9.17554648891008
1953,9.66900346939655
2,1, 7, 1, 0, 6, 0.00,60.00,Sunday
7,21.954166666666663
652,17.978786241824925
1717,7048.844363338201
1720,0.4799510400000001
1721,0.3830840775495662
1722,0.09686696245043382
1723,10.0
1724,10.700863300207479
1730,13.053147458035678
1952,9.079022556513826
1953,9.790624246238897
2,1, 7, 1, 0, 7, 0.00,60.00,Sunday
7,22.200000000000025
652,17.9793996197571
1717,7544.654789549933
1720,0.5999388000000001
1721,0.4494207702459141
1722,0.1505180297540859
1723,10.0
1724,10.750161499129194
1730,14.195284204217586
1952,8.930492146501989
1953,9.694076632528173
2,1, 7, 1, 0, 8, 0.00,60.00,Sunday
7,23.31833333333333
652,17.982918476855038
1717,11289.08383277189
1720,0.7199265600000001
1721,0.7199265599999999
1722,0.0
1723,8.52004941620161
1724,9.641954162963627
1730,14.299417684117979
1952,8.458202714951805
1953,9.596198919976205
2,1, 7, 1, 0, 9, 0.00,60.00,Sunday
7,25.823333333333335
652,17.9843513561445
1717,13387.15173539735
1720,0.8399143200000002
1721,0.8261378670637141
1722,0.013776452936286295
1723,7.3531084466290779
1724,8.682988994827725
1730,14.962938444105756
1952,7.240522297523455
1953,8.589176213694885
2,1, 7, 1, 0,10, 0.00,60.00,Sunday
7,27.759166666666667
652,18.0033029358634
1717,15791.325532558305
1720,1.2798694400000004
1721,1.1811788845318812
1722,0.09869055546811856
1723,7.0
1724,8.568552195770595
1730,14.451258157639508
1952,6.700085088904845
1953,8.297244321586345
2,1, 7, 1, 0,11, 0.00,60.00,Sunday
7,29.164166666666668
652,18.035409356132428
1717,16984.310909772106
1720,2.0397919200000009
1721,1.816543152105794
1722,0.22324876789420584
1723,7.0
1724,8.687051420493236
1730,13.407784032937834
1952,6.699999999999993
1953,8.432643885569977
2,1, 7, 1, 0,12, 0.00,60.00,Sunday
7,30.0
652,18.35700485001645
1717,15342.60397677354
1720,2.3997551999999997
1721,2.0754778213903037
1722,0.3242773786096956
1723,7.0
1724,8.523980688447504
1730,13.504846697774138
1952,6.699999999999993
1953,8.277618882655439
2,1, 7, 1, 0,13, 0.00,60.00,Sunday
7,30.86416666666667
652,19.401768373478079
1717,402.68221423389886
1720,0.5199469600000001
1721,0.022450338956342118
1722,0.49749662104365796
1723,12.0
1724,12.040061445967382
1730,13.298630852997654
1952,6.699999999999993
1953,6.751701367008096
2,1, 7, 1, 0,14, 0.00,60.00,Sunday
7,29.717500000000006
652,20.155892548574085
1717,6929.410885826347
1720,2.3997551999999997
1721,0.2963689020667128
1722,2.103386297933287
1723,12.0
1724,12.689382868117133
1730,13.355350173269898
1952,6.699999999999993
1953,7.443105580612749
2,1, 7, 1, 0,15, 0.00,60.00,Sunday
7,28.613333333333335
652,20.28169657813265
1717,9598.141410073562
1720,2.3997551999999997
1721,0.38691334768241689
1722,2.0128418523175837
1723,12.0
1724,12.95488553975123
1730,13.383355264062374
1952,6.699999999999993
1953,7.708608252246844
2,1, 7, 1, 0,16, 0.00,60.00,Sunday
7,28.0275
652,20.11804307282612
1717,9936.959273165952
1720,2.3997551999999997
1721,0.39775081743539228
1722,2.0020043825646076
1723,12.0
1724,12.98859334465362
1730,13.54891736294658
1952,6.699999999999993
1953,7.742316057149239
2,1, 7, 1, 0,17, 0.00,60.00,Sunday
7,25.276666666666665
652,19.62665784794095
1717,9563.38556609921
1720,2.3997551999999997
1721,0.43507181210908466
1722,1.9646833878909152
1723,12.0
1724,12.951427802319051
1730,14.036840019482686
1952,7.3823564174495959
1953,8.387506932264257
2,1, 7, 1, 0,18, 0.00,60.00,Sunday
7,23.594999999999997
652,18.73591977717381
1717,15811.376753134498
1720,2.3997551999999997
1721,1.1599391898340783
1722,1.239816010165922
1723,10.0
1724,11.572117799857
1730,14.427519100648534
1952,8.233382334380554
1953,9.859192081825514
2,1, 7, 1, 0,19, 0.00,60.00,Sunday
7,23.604999999999995
652,18.058549378874884
1717,8726.99615240516
1720,1.6398327200000007
1721,0.7207174309557026
1722,0.9191152890442973
1723,10.0
1724,10.867721148176413
1730,13.82278997845922
1952,8.244696415199968
1953,9.149107060894819
2,1, 7, 1, 0,20, 0.00,60.00,Sunday
7,21.917500000000005
652,17.986206213891014
1717,3221.4102407423185
1720,0.35996328
1721,0.2349001307980084
1722,0.12506314920199164
1723,10.0
1724,10.320303314454172
1730,12.32839934495454
1952,8.845998774992984
1953,9.174355881585353
2,1, 7, 1, 0,21, 0.00,60.00,Sunday
7,20.304999999999994
652,17.98050643550151
1717,4918.812375703811
1720,0.3999592
1721,0.38746393438500206
1722,0.01249526561499786
1723,10.0
1724,10.489075215317213
1730,12.517789661824262
1952,9.880041947353478
1953,10.37806582060202
2,1, 7, 1, 0,22, 0.00,60.00,Sunday
7,20.294999999999996
652,17.965769479438788
1717,4299.179900160551
1720,0.31996736
1721,0.309456972975874
1722,0.010510387024125982
1723,10.001078891270748
1724,10.428544450298974
1730,11.99002485942287
1952,9.835305394779662
1953,10.269929880152949
2,1, 7, 1, 0,23, 0.00,60.00,Sunday
7,20.0
652,17.971306539564936
1717,6190.663541138272
1720,0.4399551200000001
1721,0.4399551200000001
1722,0.0
1723,10.064321718823554
1724,10.679868527577077
1730,11.99002485942287
1952,10.012706226280672
1953,10.638096558758653
2,1, 7, 1, 0,24, 0.00,60.00,Sunday
7,20.0
652,17.967507883273794
1717,4085.2714576976575
1720,0.27997143999999998
1721,0.27997143999999998
1722,0.0
1723,10.07351133287707
1724,10.479716511540357
1730,11.99002485942287
1952,10.019819560519658
1953,10.432288799734872
2,2, 7, 2, 0, 1, 0.00,60.00,Monday
7,20.0
652,17.991234179871346
1717,6465.579180590154
1720,0.8399143200000002
1721,0.4160216443343852
1722,0.42389267566561469
1723,11.963425042693704
1724,12.606661650643727
1730,11.99002485942287
1952,10.01981981979105
1953,10.681859340080644
2,2, 7, 2, 0, 2, 0.00,60.00,Monday
7,20.0
652,17.989829553581534
1717,5096.594457954818
1720,0.6399347200000001
1721,0.3222370111859963
1722,0.31769770881400369
1723,11.996000265672145
1724,12.503041950032298
1730,11.99002485942287
1952,10.019819819819825
1953,10.54118754136274
2,2, 7, 2, 0, 3, 0.00,60.00,Monday
7,19.440833333333335
652,17.989316012927909
1717,5335.705876422815
1720,0.6399347200000001
1721,0.3524729168429756
1722,0.2874618031570243
1723,11.995529157149035
1724,12.526358994828034
1730,11.99002485942287
1952,10.247105214574747
1953,10.792261084962057
2,2, 7, 2, 0, 4, 0.00,60.00,Monday
7,19.154166666666666
652,17.98393712934686
1717,4248.98434178654
1720,0.4799510400000001
1721,0.2837663564335741
1722,0.19618468356642594
1723,11.9965731549237
1724,12.41928928459522
1730,11.99002485942287
1952,10.461629954924977
1953,10.895090615105
2,2, 7, 2, 0, 5, 0.00,60.00,Monday
7,19.399999999999996
652,17.98538289595979
1717,4790.209227756687
1720,0.5199469600000001
1721,0.3018196244239773
1722,0.21812733557602277
1723,11.996459223831332
1724,12.473019857097079
1730,11.99002485942287
1952,10.320354449925834
1953,10.808554990926807
2,2, 7, 2, 0, 6, 0.00,60.00,Monday
7,19.399999999999996
652,17.985968556331959
1717,5086.994939246252
1720,0.55994288
1721,0.3230619892773132
1722,0.23688089072268687
1723,11.996245132630703
1724,12.502331851581014
1730,11.99002485942287
1952,10.317117119815567
1953,10.835739122768635
2,2, 7, 2, 0, 7, 0.00,60.00,Monday
7,19.705
652,18.011311881999594
1717,10419.713561481625
1720,1.6398327200000007
1721,0.7693452499507304
1722,0.8704874700492697
1723,11.987807665917844
1724,13.024423360044012
1730,13.217151717817157
1952,10.176067598572234
1953,11.2493936387307
2,2, 7, 2, 0, 8, 0.00,60.00,Monday
7,21.118333333333337
652,18.912642777290615
1717,12352.97146298713
1720,2.3997551999999997
1721,1.0258110157772993
1722,1.373944184222701
1723,11.257963368270902
1724,12.486657722201024
1730,11.40197787951074
1952,9.483730778947557
1953,10.76613642703594
2,2, 7, 2, 0, 9, 0.00,60.00,Monday
7,23.62333333333333
652,19.175784037225957
1717,10482.918087958258
1720,2.3997551999999997
1721,0.6945497492815581
1722,1.705205450718442
1723,11.021103889476447
1724,12.063719062181076
1730,11.348816222533739
1952,8.247549536458142
1953,9.343872359345529
2,2, 7, 2, 0,10, 0.00,60.00,Monday
7,25.55916666666667
652,19.62480337361317
1717,11568.09817910876
1720,2.3997551999999997
1721,0.638125047114278
1722,1.7616301528857222
1723,10.65209470267158
1724,11.802519351572787
1730,11.348816222533739
1952,7.274498035090321
1953,8.478624658477694
2,2, 7, 2, 0,11, 0.00,60.00,Monday
7,26.65916666666666
652,20.108161391635993
1717,12742.246161442736
1720,2.3997551999999997
1721,0.6695677149417477
1722,1.7301874850582524
1723,10.250409675237684
1724,11.517454746171234
1730,11.348816222533739
1952,6.783661685662575
1953,8.104402554191792
2,2, 7, 2, 0,12, 0.00,60.00,Monday
7,28.06416666666667
652,20.657660299062337
1717,14108.466943029262
1720,2.3997551999999997
1721,0.7782219761785378
1722,1.6215332238214622
1723,9.793059670179416
1724,11.19575908883737
1730,11.348816222533739
1952,6.699999999999993
1953,8.156387651572173
2,2, 7, 2, 0,13, 0.00,60.00,Monday
7,29.459166666666666
652,22.76146291382697
1717,20494.294108177
1720,2.3997551999999997
1721,1.4886013829665994
1722,0.9111538170334012
1723,8.062544419572833
1724,10.098959360020356
1730,11.348816222533739
1952,6.699999999999993
1953,8.790072161620398
2,2, 7, 2, 0,14, 0.00,60.00,Monday
7,29.440833333333328
652,21.560002508077088
1717,13295.830065670241
1720,2.3997551999999997
1721,0.9148032419128763
1722,1.4849519580871234
1723,9.009989163418237
1724,10.331540904900745
1730,11.348816222533739
1952,6.699999999999993
1953,8.075225938886082
2,2, 7, 2, 0,15, 0.00,60.00,Monday
7,29.76416666666667
652,21.438301128365415
1717,14521.233894358658
1720,2.3997551999999997
1721,0.9262702519016572
1722,1.473484948098343
1723,9.135059356902179
1724,10.578481714011652
1730,11.348816222533739
1952,6.699999999999993
1953,8.197098795849444
2,2, 7, 2, 0,16, 0.00,60.00,Monday
7,30.854166666666669
652,21.4126664121189
1717,14611.524401946324
1720,2.3997551999999997
1721,0.9251386591800782
1722,1.474616540819922
1723,9.154516681063921
1724,10.606923342139039
1730,11.348816222533739
1952,6.699999999999993
1953,8.206083448567862
2,2, 7, 2, 0,17, 0.00,60.00,Monday
7,30.84583333333334
652,21.242460470114673
1717,14029.349763139344
1720,2.3997551999999997
1721,0.8712875484998199
1722,1.52846765150018
1723,9.295010703441154
1724,10.689613651966957
1730,11.348816222533739
1952,6.699999999999993
1953,8.14828225462343
2,2, 7, 2, 0,18, 0.00,60.00,Monday
7,30.59999999999997
652,22.7534298036884
1717,19071.246542277455
1720,2.3997551999999997
1721,1.4417226672336526
1722,0.9580325327663479
1723,8.061277033227303
1724,9.956287928952732
1730,11.348816222533739
1952,6.699999999999993
1953,8.648668093861021
2,2, 7, 2, 0,19, 0.00,60.00,Monday
7,29.430833333333337
652,20.17127763143437
1717,7678.428124684058
1720,2.3997551999999997
1721,0.478959442204804
1722,1.9207957577951962
1723,10.147751951207733
1724,10.911217066705929
1730,30.325253348030107
1952,6.699999999999993
1953,7.5171589261395319
2,2, 7, 2, 0,20, 0.00,60.00,Monday
7,26.927500000000003
652,18.922468431692886
1717,7126.984683999729
1720,2.3997551999999997
1721,0.3579345790659742
1722,2.041820620934026
1723,11.216667359171215
1724,11.925547165510505
1730,32.08211636553582
1952,6.806747806659074
1953,7.569338271781038
2,2, 7, 2, 0,21, 0.00,60.00,Monday
7,24.430833333333334
652,18.37822665509285
1717,7343.168850849699
1720,2.3997551999999997
1721,0.40965419064818489
1722,1.990101009351815
1723,11.67883199326874
1724,12.409310821212902
1730,31.976673274465879
1952,7.805335827108237
1953,8.589532424626395
2,2, 7, 2, 0,22, 0.00,60.00,Monday
7,23.045833333333339
652,18.064868534744624
1717,7244.062461694966
1720,2.3997551999999997
1721,0.4470033694601464
1722,1.9527518305398537
1723,11.94343090190999
1724,12.664105743507833
1730,21.28213670358007
1952,8.506349810575627
1953,9.280746493734807
2,2, 7, 2, 0,23, 0.00,60.00,Monday
7,22.494999999999999
652,18.001493260245096
1717,5663.014993780523
1720,1.3598612800000006
1721,0.33769386095209466
1722,1.0221674190479056
1723,11.996312341807027
1724,12.559705076143043
1730,12.496340235586692
1952,8.771905048760456
1953,9.365740608757728
2,2, 7, 2, 0,24, 0.00,60.00,Monday
7,21.640833333333334
652,17.99594395724698
1717,4883.344624412136
1720,0.8799102400000003
1721,0.2926109618048304
1722,0.5872992781951696
1723,11.99583688532549
1724,12.4816629702975
1730,11.990521714263192
1952,9.172905605028144
1953,9.678429985126334
End of Data
 Number of Records Written=        1056
