Program Version,EnergyPlus, Version 9.5.0-de239b2e5f, YMD=2021.08.10 13:15
1,5,Environment Title[],Latitude[deg],Longitude[deg],Time Zone[],Elevation[m]
2,8,Day of Simulation[],Month[],Day of Month[],DST Indicator[1=yes 0=no],Hour[],StartMinute[],EndMinute[],DayType
3,5,Cumulative Day of Simulation[],Month[],Day of Month[],DST Indicator[1=yes 0=no],DayType  ! When Daily Report Variables Requested
4,2,Cumulative Days of Simulation[],Month[]  ! When Monthly Report Variables Requested
5,1,Cumulative Days of Simulation[] ! When Run Period Report Variables Requested
6,1,Calendar Year of Simulation[] ! When Annual Report Variables Requested
675,1,PERIMETER_TOP_ZN_3,Zone Mean Air Temperature [C] !Hourly
1748,1,PERI3_TOP_LOTEMP,Zone Radiant HVAC Heating Rate [W] !Hourly
1753,1,PERI3_TOP_LOTEMP,Zone Radiant HVAC Pump Electricity Rate [W] !Hourly
1991,1,BOILER_RADSYS,Boiler Electricity Rate [W] !Hourly
2033,1,HOT WATER LOOP HW SUPPLY PUMP2,Pump Electricity Rate [W] !Hourly
End of Data Dictionary
1,RUNPERIOD 1,  33.63, -84.43,  -5.00, 308.00
2,1, 1,21, 0, 1, 0.00,60.00,Holiday
675,21.688399580285748
1748,5172.726266869142
1753,60.0
1991,6132.304023265578
2033,54.992337948717949
2,1, 1,21, 0, 2, 0.00,60.00,Holiday
675,21.832233259243077
1748,4848.258419648831
1753,60.0
1991,5978.003310830094
2033,54.992337948717949
2,1, 1,21, 0, 3, 0.00,60.00,Holiday
675,21.759978574650483
1748,5000.601123591374
1753,60.0
1991,6144.675530286294
2033,54.992337948717949
2,1, 1,21, 0, 4, 0.00,60.00,Holiday
675,21.705670370697498
1748,5126.4435194065649
1753,60.0
1991,6311.300835903999
2033,54.992337948717949
2,1, 1,21, 0, 5, 0.00,60.00,Holiday
675,21.727990107473155
1748,5080.318443986765
1753,60.0
1991,6273.143601341647
2033,54.992337948717949
2,1, 1,21, 0, 6, 0.00,60.00,Holiday
675,21.614992640985066
1748,5296.251003040796
1753,60.0
1991,6510.910580952535
2033,54.992337948717949
2,1, 1,21, 0, 7, 0.00,60.00,Holiday
675,21.49135795078893
1748,5566.492852262667
1753,60.0
1991,6863.733233047996
2033,54.992337948717949
2,1, 1,21, 0, 8, 0.00,60.00,Holiday
675,21.550705500975444
1748,5440.440886539824
1753,60.0
1991,6690.108011388429
2033,54.992337948717949
2,1, 1,21, 0, 9, 0.00,60.00,Holiday
675,21.715050352185818
1748,5085.693535063529
1753,60.0
1991,6247.2446195173929
2033,54.992337948717949
2,1, 1,21, 0,10, 0.00,60.00,Holiday
675,21.862753266335994
1748,4744.093477803286
1753,60.0
1991,5795.708013337258
2033,54.992337948717949
2,1, 1,21, 0,11, 0.00,60.00,Holiday
675,22.05352898085137
1748,1360.208031563093
1753,18.0
1991,1656.8272300499962
2033,16.497701384615384
2,1, 1,21, 0,12, 0.00,60.00,Holiday
675,22.11995279152021
1748,0.0
1753,0.0
1991,0.0
2033,0.0
2,1, 1,21, 0,13, 0.00,60.00,Holiday
675,22.16899285165495
1748,0.0
1753,0.0
1991,0.0
2033,0.0
2,1, 1,21, 0,14, 0.00,60.00,Holiday
675,22.408468117628627
1748,0.0
1753,0.0
1991,0.0
2033,0.0
2,1, 1,21, 0,15, 0.00,60.00,Holiday
675,22.5202326505215
1748,0.0
1753,0.0
1991,0.0
2033,0.0
2,1, 1,21, 0,16, 0.00,60.00,Holiday
675,22.46535832782739
1748,0.0
1753,0.0
1991,0.0
2033,0.0
2,1, 1,21, 0,17, 0.00,60.00,Holiday
675,22.302504748320979
1748,0.0
1753,0.0
1991,0.0
2033,0.0
2,1, 1,21, 0,18, 0.00,60.00,Holiday
675,22.079035557186786
1748,1580.9277399887399
1753,18.0
1991,1853.379231524045
2033,16.497701384615384
2,1, 1,21, 0,19, 0.00,60.00,Holiday
675,21.904830631934464
1748,5108.261818852554
1753,60.0
1991,6334.825741832401
2033,54.992337948717949
2,1, 1,21, 0,20, 0.00,60.00,Holiday
675,21.865730912609345
1748,4995.4950098472859
1753,60.0
1991,6141.927496761254
2033,54.992337948717949
2,1, 1,21, 0,21, 0.00,60.00,Holiday
675,21.657763667755
1748,5323.3016699565
1753,60.0
1991,6572.779021213888
2033,54.992337948717949
2,1, 1,21, 0,22, 0.00,60.00,Holiday
675,21.566030155503694
1748,5472.676861404513
1753,60.0
1991,6729.511543364926
2033,54.992337948717949
2,1, 1,21, 0,23, 0.00,60.00,Holiday
675,21.604456314104764
1748,5341.237622195882
1753,60.0
1991,6577.409206116863
2033,54.992337948717949
2,1, 1,21, 0,24, 0.00,60.00,Holiday
675,21.569840131453359
1748,5408.849357939593
1753,60.0
1991,6668.626757418309
2033,54.992337948717949
2,2, 1,22, 0, 1, 0.00,60.00,Tuesday
675,21.540519759993633
1748,5456.471101299159
1753,60.0
1991,6720.139644185631
2033,54.992337948717949
2,2, 1,22, 0, 2, 0.00,60.00,Tuesday
675,21.365878644914308
1748,5810.206630803885
1753,60.0
1991,7141.690971770493
2033,54.992337948717949
2,2, 1,22, 0, 3, 0.00,60.00,Tuesday
675,21.267021107995004
1748,6012.033227683687
1753,60.0
1991,7442.649081770088
2033,54.992337948717949
2,2, 1,22, 0, 4, 0.00,60.00,Tuesday
675,21.221269368022669
1748,6084.723479679121
1753,60.0
1991,7513.104810617804
2033,54.992337948717949
2,2, 1,22, 0, 5, 0.00,60.00,Tuesday
675,21.186910807661087
1748,6162.397046246451
1753,60.0
1991,7636.019397782035
2033,54.992337948717949
2,2, 1,22, 0, 6, 0.00,60.00,Tuesday
675,21.234731148533969
1748,6057.604525092787
1753,60.0
1991,7486.237810603369
2033,54.992337948717949
2,2, 1,22, 0, 7, 0.00,60.00,Tuesday
675,21.614288845610579
1748,5307.694109115927
1753,60.0
1991,6542.563919355542
2033,54.992337948717949
2,2, 1,22, 0, 8, 0.00,60.00,Tuesday
675,19.2630292328618
1748,10087.911873159996
1753,60.0
1991,12396.325159187396
2033,54.992337948717949
2,2, 1,22, 0, 9, 0.00,60.00,Tuesday
675,19.57635740153854
1748,9239.75471318733
1753,60.0
1991,11413.30394931468
2033,54.992337948717949
2,2, 1,22, 0,10, 0.00,60.00,Tuesday
675,19.892588016207627
1748,8391.78444250984
1753,60.0
1991,10331.620451110251
2033,54.992337948717949
2,2, 1,22, 0,11, 0.00,60.00,Tuesday
675,20.165251106752487
1748,7684.558295846958
1753,60.0
1991,9465.029268964732
2033,54.992337948717949
2,2, 1,22, 0,12, 0.00,60.00,Tuesday
675,20.385147605610329
1748,7123.418950821369
1753,60.0
1991,8800.795991276262
2033,54.992337948717949
2,2, 1,22, 0,13, 0.00,60.00,Tuesday
675,20.398068553271654
1748,7019.718106442653
1753,60.0
1991,8640.336536039156
2033,54.992337948717949
2,2, 1,22, 0,14, 0.00,60.00,Tuesday
675,20.600699773824979
1748,6553.033208106063
1753,60.0
1991,8106.389073832924
2033,54.992337948717949
2,2, 1,22, 0,15, 0.00,60.00,Tuesday
675,20.675752836618245
1748,6354.207365503065
1753,60.0
1991,7788.285032556758
2033,54.992337948717949
2,2, 1,22, 0,16, 0.00,60.00,Tuesday
675,20.671319211287078
1748,6352.138914089317
1753,60.0
1991,7823.360391059959
2033,54.992337948717949
2,2, 1,22, 0,17, 0.00,60.00,Tuesday
675,20.610078892206514
1748,6482.825236240342
1753,60.0
1991,8023.988807181576
2033,54.992337948717949
2,2, 1,22, 0,18, 0.00,60.00,Tuesday
675,20.194205659410686
1748,7379.4815715469189
1753,60.0
1991,9130.287996122692
2033,54.992337948717949
2,2, 1,22, 0,19, 0.00,60.00,Tuesday
675,19.834328933456108
1748,8178.447734114353
1753,60.0
1991,10159.759924547448
2033,54.992337948717949
2,2, 1,22, 0,20, 0.00,60.00,Tuesday
675,19.65097891666398
1748,8597.716116047917
1753,60.0
1991,10652.48760634678
2033,54.992337948717949
2,2, 1,22, 0,21, 0.00,60.00,Tuesday
675,19.54451134511826
1748,8837.657944222323
1753,60.0
1991,10980.320810480775
2033,54.992337948717949
2,2, 1,22, 0,22, 0.00,60.00,Tuesday
675,21.90572361496735
1748,1989.3249672492753
1753,24.0
1991,2540.669534283462
2033,21.996935179487175
2,2, 1,22, 0,23, 0.00,60.00,Tuesday
675,21.89604422965231
1748,4105.627374766089
1753,54.0
1991,5064.877592410168
2033,49.49310415384615
2,2, 1,22, 0,24, 0.00,60.00,Tuesday
675,21.82449017527011
1748,4722.2946542204049
1753,60.0
1991,5745.414853903076
2033,54.992337948717949
End of Data
 Number of Records Written=         240
