Program Version,EnergyPlus, Version 9.5.0-de239b2e5f, YMD=2021.09.08 00:19
1,5,Environment Title[],Latitude[deg],Longitude[deg],Time Zone[],Elevation[m]
2,8,Day of Simulation[],Month[],Day of Month[],DST Indicator[1=yes 0=no],Hour[],StartMinute[],EndMinute[],DayType
3,5,Cumulative Day of Simulation[],Month[],Day of Month[],DST Indicator[1=yes 0=no],DayType  ! When Daily Report Variables Requested
4,2,Cumulative Days of Simulation[],Month[]  ! When Monthly Report Variables Requested
5,1,Cumulative Days of Simulation[] ! When Run Period Report Variables Requested
6,1,Calendar Year of Simulation[] ! When Annual Report Variables Requested
675,1,PERIMETER_TOP_ZN_3,Zone Mean Air Temperature [C] !Hourly
1748,1,PERI3_TOP_LOTEMP,Zone Radiant HVAC Heating Rate [W] !Hourly
1753,1,PERI3_TOP_LOTEMP,Zone Radiant HVAC Pump Electricity Rate [W] !Hourly
1991,1,BOILER_RADSYS,Boiler Electricity Rate [W] !Hourly
2033,1,HOT WATER LOOP HW SUPPLY PUMP2,Pump Electricity Rate [W] !Hourly
End of Data Dictionary
1,RUNPERIOD 1,  40.78, -73.97,  -5.00,  40.00
2,1, 1,31, 0, 1, 0.00,60.00,Monday
675,21.75179978288339
1748,6203.2114344812239
1753,100.0
1991,7908.2712826353549
2033,74.62473928205125
2,1, 1,31, 0, 2, 0.00,60.00,Monday
675,21.375358639607819
1748,7889.8553472788339
1753,100.0
1991,9710.675332803583
2033,74.62473928205125
2,1, 1,31, 0, 3, 0.00,60.00,Monday
675,21.323845491980916
1748,8066.058606022724
1753,100.0
1991,9955.518764078146
2033,74.62473928205125
2,1, 1,31, 0, 4, 0.00,60.00,Monday
675,21.351297491900917
1748,7796.214366489841
1753,100.0
1991,9605.06137861508
2033,74.62473928205125
2,1, 1,31, 0, 5, 0.00,60.00,Monday
675,21.29015249448452
1748,8036.0397950024539
1753,100.0
1991,9885.752080677552
2033,74.62473928205125
2,1, 1,31, 0, 6, 0.00,60.00,Monday
675,21.339606884400977
1748,7746.46956931399
1753,100.0
1991,9551.577107842688
2033,74.62473928205125
2,1, 1,31, 0, 7, 0.00,60.00,Monday
675,21.81054295214681
1748,5649.380959012729
1753,100.0
1991,6969.972792109232
2033,74.62473928205125
2,1, 1,31, 0, 8, 0.00,60.00,Monday
675,19.415789281214637
1748,16639.707357695275
1753,100.0
1991,18871.89257644106
2033,74.62473928205125
2,1, 1,31, 0, 9, 0.00,60.00,Monday
675,19.583578356871308
1748,15838.622770756065
1753,100.0
1991,19830.560588783996
2033,74.62473928205125
2,1, 1,31, 0,10, 0.00,60.00,Monday
675,19.871100235584558
1748,14273.094805548357
1753,100.0
1991,19587.360248846766
2033,74.62473928205125
2,1, 1,31, 0,11, 0.00,60.00,Monday
675,20.09063727434559
1748,13085.183496112995
1753,100.0
1991,16169.8143058655
2033,74.62473928205125
2,1, 1,31, 0,12, 0.00,60.00,Monday
675,20.316685613243828
1748,11903.64164630385
1753,100.0
1991,14745.013416378031
2033,74.62473928205125
2,1, 1,31, 0,13, 0.00,60.00,Monday
675,20.33822139752457
1748,11648.728361401038
1753,100.0
1991,14369.404596319113
2033,74.62473928205125
2,1, 1,31, 0,14, 0.00,60.00,Monday
675,20.536772582587873
1748,10630.550135088724
1753,100.0
1991,13095.974976776492
2033,74.62473928205125
2,1, 1,31, 0,15, 0.00,60.00,Monday
675,20.632478412511824
1748,10065.284080433448
1753,100.0
1991,12397.491263706272
2033,74.62473928205125
2,1, 1,31, 0,16, 0.00,60.00,Monday
675,20.561185905059454
1748,10250.393099546729
1753,100.0
1991,12636.075997270647
2033,74.62473928205125
2,1, 1,31, 0,17, 0.00,60.00,Monday
675,20.43822495256277
1748,10706.424628775461
1753,100.0
1991,13182.560488981584
2033,74.62473928205125
2,1, 1,31, 0,18, 0.00,60.00,Monday
675,20.044052181291595
1748,12326.233665239382
1753,100.0
1991,15204.182156560524
2033,74.62473928205125
2,1, 1,31, 0,19, 0.00,60.00,Monday
675,19.81296552140336
1748,13135.647935921714
1753,100.0
1991,16240.795814659135
2033,74.62473928205125
2,1, 1,31, 0,20, 0.00,60.00,Monday
675,19.753545283095943
1748,13112.530410550902
1753,100.0
1991,16200.190242491715
2033,74.62473928205125
2,1, 1,31, 0,21, 0.00,60.00,Monday
675,19.78010162295146
1748,12699.39985917467
1753,100.0
1991,15692.800254478503
2033,74.62473928205125
2,1, 1,31, 0,22, 0.00,60.00,Monday
675,22.05987202519447
1748,1752.8271363412337
1753,30.0
1991,2285.1684005838217
2033,22.387421784615385
2,1, 1,31, 0,23, 0.00,60.00,Monday
675,21.783166218559069
1748,5859.224199379411
1753,90.0
1991,7007.069211486715
2033,67.16226535384613
2,1, 1,31, 0,24, 0.00,60.00,Monday
675,21.886664287898407
1748,5801.191018063097
1753,100.0
1991,7020.22677412204
2033,74.62473928205125
2,2, 2, 1, 0, 1, 0.00,60.00,Tuesday
675,21.92614722968417
1748,0.0
1753,0.0
1991,0.0
2033,0.0
2,2, 2, 1, 0, 2, 0.00,60.00,Tuesday
675,21.885530959918119
1748,0.0
1753,0.0
1991,0.0
2033,0.0
2,2, 2, 1, 0, 3, 0.00,60.00,Tuesday
675,21.922152015167258
1748,0.0
1753,0.0
1991,0.0
2033,0.0
2,2, 2, 1, 0, 4, 0.00,60.00,Tuesday
675,21.995186963490608
1748,0.0
1753,0.0
1991,0.0
2033,0.0
2,2, 2, 1, 0, 5, 0.00,60.00,Tuesday
675,22.070682224070766
1748,0.0
1753,0.0
1991,0.0
2033,0.0
2,2, 2, 1, 0, 6, 0.00,60.00,Tuesday
675,22.122172156604358
1748,0.0
1753,0.0
1991,0.0
2033,0.0
2,2, 2, 1, 0, 7, 0.00,60.00,Tuesday
675,22.50729669085073
1748,0.0
1753,0.0
1991,0.0
2033,0.0
2,2, 2, 1, 0, 8, 0.00,60.00,Tuesday
675,19.980031799851387
1748,0.0
1753,0.0
1991,0.0
2033,0.0
2,2, 2, 1, 0, 9, 0.00,60.00,Tuesday
675,20.118023506742888
1748,0.0
1753,0.0
1991,0.0
2033,0.0
2,2, 2, 1, 0,10, 0.00,60.00,Tuesday
675,20.35075555756648
1748,0.0
1753,0.0
1991,0.0
2033,0.0
2,2, 2, 1, 0,11, 0.00,60.00,Tuesday
675,20.558218470553283
1748,0.0
1753,0.0
1991,0.0
2033,0.0
2,2, 2, 1, 0,12, 0.00,60.00,Tuesday
675,20.947986719871645
1748,0.0
1753,0.0
1991,0.0
2033,0.0
2,2, 2, 1, 0,13, 0.00,60.00,Tuesday
675,21.190407254626235
1748,0.0
1753,0.0
1991,0.0
2033,0.0
2,2, 2, 1, 0,14, 0.00,60.00,Tuesday
675,21.43628209055292
1748,0.0
1753,0.0
1991,0.0
2033,0.0
2,2, 2, 1, 0,15, 0.00,60.00,Tuesday
675,21.45828897995635
1748,0.0
1753,0.0
1991,0.0
2033,0.0
2,2, 2, 1, 0,16, 0.00,60.00,Tuesday
675,21.445311673269364
1748,0.0
1753,0.0
1991,0.0
2033,0.0
2,2, 2, 1, 0,17, 0.00,60.00,Tuesday
675,21.253838215977095
1748,0.0
1753,0.0
1991,0.0
2033,0.0
2,2, 2, 1, 0,18, 0.00,60.00,Tuesday
675,20.304202761786216
1748,0.0
1753,0.0
1991,0.0
2033,0.0
2,2, 2, 1, 0,19, 0.00,60.00,Tuesday
675,19.53350500556382
1748,0.0
1753,0.0
1991,0.0
2033,0.0
2,2, 2, 1, 0,20, 0.00,60.00,Tuesday
675,19.151901023644905
1748,0.0
1753,0.0
1991,0.0
2033,0.0
2,2, 2, 1, 0,21, 0.00,60.00,Tuesday
675,18.926767301508784
1748,0.0
1753,0.0
1991,0.0
2033,0.0
2,2, 2, 1, 0,22, 0.00,60.00,Tuesday
675,21.216228791977
1748,0.0
1753,0.0
1991,0.0
2033,0.0
2,2, 2, 1, 0,23, 0.00,60.00,Tuesday
675,21.574701453959294
1748,0.0
1753,0.0
1991,0.0
2033,0.0
2,2, 2, 1, 0,24, 0.00,60.00,Tuesday
675,21.55545915794699
1748,0.0
1753,0.0
1991,0.0
2033,0.0
2,3, 2, 2, 0, 1, 0.00,60.00,Wednesday
675,21.92583214879394
1748,4360.873647299643
1753,60.0
1991,5082.936094286337
2033,44.774843569230757
2,3, 2, 2, 0, 2, 0.00,60.00,Wednesday
675,22.13960379414354
1748,0.0
1753,0.0
1991,0.0
2033,0.0
2,3, 2, 2, 0, 3, 0.00,60.00,Wednesday
675,22.182602786771939
1748,0.0
1753,0.0
1991,0.0
2033,0.0
2,3, 2, 2, 0, 4, 0.00,60.00,Wednesday
675,22.15723332020668
1748,0.0
1753,0.0
1991,0.0
2033,0.0
2,3, 2, 2, 0, 5, 0.00,60.00,Wednesday
675,22.185590422672698
1748,0.0
1753,0.0
1991,0.0
2033,0.0
2,3, 2, 2, 0, 6, 0.00,60.00,Wednesday
675,22.256351872198719
1748,0.0
1753,0.0
1991,0.0
2033,0.0
2,3, 2, 2, 0, 7, 0.00,60.00,Wednesday
675,22.660972696216
1748,0.0
1753,0.0
1991,0.0
2033,0.0
2,3, 2, 2, 0, 8, 0.00,60.00,Wednesday
675,20.924567136701737
1748,10421.81843362487
1753,95.0
1991,12751.138592771693
2033,70.89350231794869
2,3, 2, 2, 0, 9, 0.00,60.00,Wednesday
675,21.3028785580048
1748,8388.529058793018
1753,100.0
1991,10366.4667942411
2033,74.62473928205125
2,3, 2, 2, 0,10, 0.00,60.00,Wednesday
675,21.543047778132306
1748,7032.328225774448
1753,100.0
1991,8627.219361316276
2033,74.62473928205125
2,3, 2, 2, 0,11, 0.00,60.00,Wednesday
675,21.631942047162036
1748,6451.189051581311
1753,100.0
1991,7878.03491778914
2033,74.62473928205125
2,3, 2, 2, 0,12, 0.00,60.00,Wednesday
675,21.768029335114457
1748,5794.892173201353
1753,100.0
1991,7084.706429568521
2033,74.62473928205125
2,3, 2, 2, 0,13, 0.00,60.00,Wednesday
675,21.798402301516039
1748,5528.813198645845
1753,100.0
1991,6715.500752819766
2033,74.62473928205125
2,3, 2, 2, 0,14, 0.00,60.00,Wednesday
675,21.92991118945732
1748,4901.604445621278
1753,100.0
1991,5956.633684125888
2033,74.62473928205125
2,3, 2, 2, 0,15, 0.00,60.00,Wednesday
675,21.51093548706824
1748,6606.354182883241
1753,100.0
1991,7986.383573740398
2033,74.62473928205125
2,3, 2, 2, 0,16, 0.00,60.00,Wednesday
675,20.82445457695574
1748,9884.388126237554
1753,100.0
1991,12248.388881374762
2033,74.62473928205125
2,3, 2, 2, 0,17, 0.00,60.00,Wednesday
675,20.63789351298616
1748,10689.873726779379
1753,100.0
1991,13259.050438145929
2033,74.62473928205125
2,3, 2, 2, 0,18, 0.00,60.00,Wednesday
675,20.17559321721594
1748,12695.632829038257
1753,100.0
1991,15696.457190351983
2033,74.62473928205125
2,3, 2, 2, 0,19, 0.00,60.00,Wednesday
675,19.854759507577947
1748,14083.328399795322
1753,100.0
1991,17436.086790855334
2033,74.62473928205125
2,3, 2, 2, 0,20, 0.00,60.00,Wednesday
675,19.722945270449995
1748,14546.737875927134
1753,100.0
1991,18027.74421742974
2033,74.62473928205125
2,3, 2, 2, 0,21, 0.00,60.00,Wednesday
675,19.656791349815859
1748,14686.391913537964
1753,100.0
1991,18183.588979633914
2033,74.62473928205125
2,3, 2, 2, 0,22, 0.00,60.00,Wednesday
675,22.04526710550146
1748,2171.088900766826
1753,30.0
1991,2876.526022496181
2033,22.387421784615385
2,3, 2, 2, 0,23, 0.00,60.00,Wednesday
675,21.642897743149644
1748,6442.226279093802
1753,90.0
1991,7919.826267960736
2033,67.16226535384613
2,3, 2, 2, 0,24, 0.00,60.00,Wednesday
675,21.633862852041724
1748,6877.62525915687
1753,100.0
1991,8433.286694491306
2033,74.62473928205125
End of Data
 Number of Records Written=         360
