Program Version,EnergyPlus, Version 9.4.0-998c4b761e, YMD=2021.07.14 00:48
1,5,Environment Title[],Latitude[deg],Longitude[deg],Time Zone[],Elevation[m]
2,8,Day of Simulation[],Month[],Day of Month[],DST Indicator[1=yes 0=no],Hour[],StartMinute[],EndMinute[],DayType
3,5,Cumulative Day of Simulation[],Month[],Day of Month[],DST Indicator[1=yes 0=no],DayType  ! When Daily Report Variables Requested
4,2,Cumulative Days of Simulation[],Month[]  ! When Monthly Report Variables Requested
5,1,Cumulative Days of Simulation[] ! When Run Period Report Variables Requested
6,1,Calendar Year of Simulation[] ! When Annual Report Variables Requested
7,1,Environment,Site Outdoor Air Drybulb Temperature [C] !Hourly
770,1,PERIMETER_TOP_ZN_4,Zone Mean Air Temperature [C] !Hourly
2050,1,PERI1_TOP_LOTEMP,Zone Radiant HVAC Cooling Rate [W] !Hourly
2053,1,PERI1_TOP_LOTEMP,Zone Radiant HVAC Mass Flow Rate [kg/s] !Hourly
2054,1,PERI1_TOP_LOTEMP,Zone Radiant HVAC Injection Mass Flow Rate [kg/s] !Hourly
2055,1,PERI1_TOP_LOTEMP,Zone Radiant HVAC Recirculation Mass Flow Rate [kg/s] !Hourly
2056,1,PERI1_TOP_LOTEMP,Zone Radiant HVAC Inlet Temperature [C] !Hourly
2057,1,PERI1_TOP_LOTEMP,Zone Radiant HVAC Outlet Temperature [C] !Hourly
2063,1,PERI2_TOP_LOTEMP,Zone Radiant HVAC Outlet Temperature [C] !Hourly
2285,1,PERI1_TOP_LOTEMP_CHW_INLET,System Node Temperature [C] !Hourly
2286,1,PERI1_TOP_LOTEMP_CHW_OUTLET,System Node Temperature [C] !Hourly
End of Data Dictionary
1,ATLANTA-HARTSFIELD.JACKSON.INTL.AP_GA_USA ANN HTG 99.6% CONDNS DB,  33.63, -84.43,  -5.00, 308.00
2,1, 1,21, 0, 1, 0.00,60.00,WinterDesignDay
7,-6.300000000000007
770,18.32631385702086
2050,0.0
2053,0.45783131581209327
2054,0.1838860101105428
2055,0.2739453057015498
2056,36.73671021585675
2057,28.073136325818596
2063,36.13238166026206
2285,12.20000000000001
2286,12.20000000000001
2,1, 1,21, 0, 2, 0.00,60.00,WinterDesignDay
7,-6.300000000000007
770,18.32535943008373
2050,0.0
2053,0.45783131581209327
2054,0.1840955404841463
2055,0.2737357753279462
2056,36.746239629088858
2057,28.07913244700914
2063,36.123767555852868
2285,12.20000000000001
2286,12.20000000000001
2,1, 1,21, 0, 3, 0.00,60.00,WinterDesignDay
7,-6.300000000000007
770,18.324326915753376
2050,0.0
2053,0.45783131581209327
2054,0.18430579215244814
2055,0.27352552365964458
2056,36.75655349633482
2057,28.08579688336
2063,36.11598763292597
2285,12.20000000000001
2286,12.20000000000001
2,1, 1,21, 0, 4, 0.00,60.00,WinterDesignDay
7,-6.300000000000007
770,18.323236588676186
2050,0.0
2053,0.45783131581209327
2054,0.18451572481318088
2055,0.2733155909989119
2056,36.76744863141464
2057,28.092964706968929
2063,36.10890280835767
2285,12.20000000000001
2286,12.20000000000001
2,1, 1,21, 0, 5, 0.00,60.00,WinterDesignDay
7,-6.300000000000007
770,18.322105691439235
2050,0.0
2053,0.45783131581209327
2054,0.18472426920859734
2055,0.27310704660349546
2056,36.778752089996277
2057,28.1004995237653
2063,36.102410686706
2285,12.20000000000001
2286,12.20000000000001
2,1, 1,21, 0, 6, 0.00,60.00,WinterDesignDay
7,-6.300000000000007
770,18.320948518422424
2050,0.0
2053,0.45783131581209327
2054,0.18493048959621079
2055,0.27290082621588176
2056,36.790320468558899
2057,28.10828802596426
2063,36.09643371158703
2285,12.20000000000001
2286,12.20000000000001
2,1, 1,21, 0, 7, 0.00,60.00,WinterDesignDay
7,-6.300000000000007
770,18.70090030941468
2050,0.0
2053,0.45783131581209327
2054,0.12384223830418483
2055,0.33398907750790765
2056,33.041349062155607
2057,26.81533781038292
2063,36.15502625781291
2285,12.20000000000001
2286,12.20000000000001
2,1, 1,21, 0, 8, 0.00,60.00,WinterDesignDay
7,-6.300000000000007
770,18.591406947139846
2050,0.0
2053,0.45783131581209327
2054,0.15243472941566656
2055,0.3053965863964262
2056,34.07895445763199
2057,26.25056750267857
2063,36.199630575517208
2285,12.20000000000001
2286,12.20000000000001
2,1, 1,21, 0, 9, 0.00,60.00,WinterDesignDay
7,-6.300000000000007
770,18.57985545333575
2050,0.0
2053,0.45783131581209327
2054,0.15443710006323417
2055,0.3033942157488586
2056,34.201301246647087
2057,26.275907653746093
2063,36.211252469442829
2285,12.20000000000001
2286,12.20000000000001
2,1, 1,21, 0,10, 0.00,60.00,WinterDesignDay
7,-6.300000000000007
770,18.579872942881445
2050,0.0
2053,0.45783131581209327
2054,0.15418422062444465
2055,0.30364709518764795
2056,34.2013024139875
2057,26.287249154595217
2063,36.22376014189383
2285,12.20000000000001
2286,12.20000000000001
2,1, 1,21, 0,11, 0.00,60.00,WinterDesignDay
7,-6.300000000000007
770,18.58002978873346
2050,0.0
2053,0.45783131581209327
2054,0.15403159983073287
2055,0.30379971598135988
2056,34.19972779822059
2057,26.28986653799304
2063,36.235282292984397
2285,12.20000000000001
2286,12.20000000000001
2,1, 1,21, 0,12, 0.00,60.00,WinterDesignDay
7,-6.300000000000007
770,18.580227265343518
2050,0.0
2053,0.45783131581209327
2054,0.15391930598388857
2055,0.3039120098282041
2056,34.19776880107483
2057,26.28979776332877
2063,36.24537615555948
2285,12.20000000000001
2286,12.20000000000001
2,1, 1,21, 0,13, 0.00,60.00,WinterDesignDay
7,-6.300000000000007
770,18.58053307677075
2050,0.0
2053,0.45783131581209327
2054,0.1538119724699099
2055,0.3040193433421826
2056,34.194729105267168
2057,26.288432322237907
2063,36.25422682666536
2285,12.20000000000001
2286,12.20000000000001
2,1, 1,21, 0,14, 0.00,60.00,WinterDesignDay
7,-6.300000000000007
770,18.580941342675833
2050,0.0
2053,0.45783131581209327
2054,0.1537034933742318
2055,0.3041278224378609
2056,34.19066194748065
2057,26.286162745332136
2063,36.262075187908617
2285,12.20000000000001
2286,12.20000000000001
2,1, 1,21, 0,15, 0.00,60.00,WinterDesignDay
7,-6.300000000000007
770,18.581432091572539
2050,0.0
2053,0.45783131581209327
2054,0.15359376934631739
2055,0.30423754646577536
2056,34.185766552141718
2057,26.283196854038864
2063,36.26911087138456
2285,12.20000000000001
2286,12.20000000000001
2,1, 1,21, 0,16, 0.00,60.00,WinterDesignDay
7,-6.300000000000007
770,18.581986037544018
2050,0.0
2053,0.45783131581209327
2054,0.15348362065613137
2055,0.3043476951559613
2056,34.18023619715088
2057,26.279692959501025
2063,36.27547180222261
2285,12.20000000000001
2286,12.20000000000001
2,1, 1,21, 0,17, 0.00,60.00,WinterDesignDay
7,-6.300000000000007
770,18.58258674299098
2050,0.0
2053,0.45783131581209327
2054,0.15337390310245264
2055,0.30445741270963996
2056,34.17423574321484
2057,26.275781816399506
2063,36.28125871485777
2285,12.20000000000001
2286,12.20000000000001
2,1, 1,21, 0,18, 0.00,60.00,WinterDesignDay
7,-6.300000000000007
770,18.583220527229537
2050,0.0
2053,0.45783131581209327
2054,0.15326536650907403
2055,0.30456594930301858
2056,34.16790242743323
2057,26.27157223352424
2063,36.28654733725764
2285,12.20000000000001
2286,12.20000000000001
2,1, 1,21, 0,19, 0.00,60.00,WinterDesignDay
7,-6.300000000000007
770,18.20425867400006
2050,0.0
2053,0.45783131581209327
2054,0.21449609422441377
2055,0.24333522158767896
2056,37.90666757659791
2057,27.562564922442858
2063,36.22743101193422
2285,12.20000000000001
2286,12.20000000000001
2,1, 1,21, 0,20, 0.00,60.00,WinterDesignDay
7,-6.300000000000007
770,18.30997870679791
2050,0.0
2053,0.45783131581209327
2054,0.1862170246349861
2055,0.2716142911771064
2056,36.90724979885678
2057,28.139274599800005
2063,36.18165142909782
2285,12.20000000000001
2286,12.20000000000001
2,1, 1,21, 0,21, 0.00,60.00,WinterDesignDay
7,-6.300000000000007
770,18.322140127799569
2050,0.0
2053,0.45783131581209327
2054,0.18380757429864143
2055,0.2740237415134512
2056,36.77873940709867
2057,28.119686544088539
2063,36.16915422334458
2285,12.20000000000001
2286,12.20000000000001
2,1, 1,21, 0,22, 0.00,60.00,WinterDesignDay
7,-6.300000000000007
770,18.32180405652862
2050,0.0
2053,0.45783131581209327
2054,0.18413225859869404
2055,0.2736990572133987
2056,36.781854355499
2057,28.110610161720403
2063,36.15601069385971
2285,12.20000000000001
2286,12.20000000000001
2,1, 1,21, 0,23, 0.00,60.00,WinterDesignDay
7,-6.300000000000007
770,18.321200528594969
2050,0.0
2053,0.45783131581209327
2054,0.1843791614028651
2055,0.27345215440922757
2056,36.7878949630245
2057,28.110791926865624
2063,36.14382998045825
2285,12.20000000000001
2286,12.20000000000001
2,1, 1,21, 0,24, 0.00,60.00,WinterDesignDay
7,-6.300000000000007
770,18.32056210718857
2050,0.0
2053,0.45783131581209327
2054,0.1845801076048079
2055,0.27325120820728479
2056,36.7942643297045
2057,28.113817687090024
2063,36.13308271995124
2285,12.20000000000001
2286,12.20000000000001
1,ATLANTA-HARTSFIELD.JACKSON.INTL.AP_GA_USA ANN CLG .4% CONDNS DB=>MWB,  33.63, -84.43,  -5.00, 308.00
2,1, 7,21, 0, 1, 0.00,60.00,SummerDesignDay
7,26.32025
770,24.112456671354346
2050,9311.533210857742
2053,0.4656068114502434
2054,0.31594879381556476
2055,0.1496580176346792
2056,9.196409872856214
2057,13.966880217260643
2063,28.82368966206309
2285,6.88794213081042
2286,11.704563663967436
2,1, 7,21, 0, 2, 0.00,60.00,SummerDesignDay
7,25.84683333333334
770,23.766944073775578
2050,7273.506552436709
2053,0.4656068114502434
2054,0.2629462531992723
2055,0.20266055825097158
2056,10.073128039905717
2057,13.800599186113683
2063,28.27361336273558
2285,7.119586882741276
2286,10.893180628605587
2,1, 7,21, 0, 3, 0.00,60.00,SummerDesignDay
7,25.515125
770,23.59084866598689
2050,6680.962903010185
2053,0.4656068114502434
2054,0.24275065066140695
2055,0.22285616078883709
2056,10.516973995654166
2057,13.94122955676703
2063,28.159373435546774
2285,7.284739011941207
2286,10.755123124276535
2,1, 7,21, 0, 4, 0.00,60.00,SummerDesignDay
7,25.230124999999995
770,23.46526572797548
2050,6391.8869038613679
2053,0.4656068114502434
2054,0.23150136391112684
2055,0.23410544753911717
2056,10.832058088643454
2057,14.108447105135215
2063,28.164369527767808
2285,7.4259628378378379
2286,10.748484568102738
2,1, 7,21, 0, 5, 0.00,60.00,SummerDesignDay
7,24.993416666666673
770,23.359474925923828
2050,6169.23243495819
2053,0.4656068114502434
2054,0.22246272976057963
2055,0.24314408168966435
2056,11.097247285285392
2057,14.259747264153879
2063,28.063711756000193
2285,7.5440276756048709
2286,10.752663872251763
2,1, 7,21, 0, 6, 0.00,60.00,SummerDesignDay
7,24.996583333333335
770,23.27827380614857
2050,6030.916608160699
2053,0.4656068114502434
2054,0.21336147936657233
2055,0.25224533208367158
2056,11.30219702633121
2057,14.393974900559787
2063,27.91721999112443
2285,7.545573915632699
2286,10.683490716022805
2,1, 7,21, 0, 7, 0.00,60.00,SummerDesignDay
7,25.42804166666666
770,23.600064384648179
2050,7395.5475789493689
2053,0.4656068114502434
2054,0.2562439318291947
2055,0.20936287962104906
2056,10.516439999628954
2057,14.306937440972339
2063,30.002229609388967
2285,7.335703317964298
2286,11.172329303646704
2,1, 7,21, 0, 8, 0.00,60.00,SummerDesignDay
7,26.575958333333334
770,23.758096786179594
2050,8139.532694394159
2053,0.4656068114502434
2054,0.26367632677763699
2055,0.20193048467260689
2056,10.113801361592456
2057,14.285137289499663
2063,30.002229609388967
2285,6.840959799294428
2286,11.058418895831661
2,1, 7,21, 0, 9, 0.00,60.00,SummerDesignDay
7,28.287541666666664
770,24.032726167263527
2050,9624.837130555352
2053,0.4656068114502434
2054,0.30242094451500226
2055,0.1631858669352417
2056,9.43134588134846
2057,14.36276886542373
2063,30.002229609388967
2285,6.699999999999995
2286,11.677535947845094
2,1, 7,21, 0,10, 0.00,60.00,SummerDesignDay
7,29.995958333333328
770,24.336425263173138
2050,11135.085519673523
2053,0.4656068114502434
2054,0.3488740055901705
2055,0.11673280586007336
2056,8.6701830000133
2057,14.373962887281327
2063,30.002229609388967
2285,6.699999999999993
2286,12.449881131214893
2,1, 7,21, 0,11, 0.00,60.00,SummerDesignDay
7,31.514374999999995
770,24.57285174313306
2050,12233.094259940945
2053,0.4656068114502434
2054,0.38455661042163366
2055,0.08105020102861017
2056,8.07653121354763
2057,14.341514272765118
2063,30.002229609388967
2285,6.699999999999993
2286,13.011084230505809
2,1, 7,21, 0,12, 0.00,60.00,SummerDesignDay
7,32.697916666666667
770,24.747854825118336
2050,12852.290296472276
2053,0.4656068114502434
2054,0.4386520306478245
2055,0.026954780802419088
2056,7.726667683026333
2057,14.307999679675298
2063,30.002229609388967
2285,7.215486324753645
2286,13.875174988982229
2,1, 7,21, 0,13, 0.00,60.00,SummerDesignDay
7,33.55133333333333
770,24.901842368161469
2050,12801.569496365213
2053,0.4656068114502434
2054,0.4656068114502434
2055,0.0
2056,7.876018155559184
2057,14.431705089457598
2063,30.002229609388967
2285,7.790200613848939
2286,14.431705089457598
2,1, 7,21, 0,14, 0.00,60.00,SummerDesignDay
7,34.16645833333333
770,25.530827077878496
2050,12876.309943964598
2053,0.4656068114502434
2054,0.4656068114502434
2055,0.0
2056,8.515152112655214
2057,15.110523161701116
2063,30.002229609388967
2285,8.428975891275803
2286,15.110523161701116
2,1, 7,21, 0,15, 0.00,60.00,SummerDesignDay
7,34.40000000000004
770,27.039093105091138
2050,12955.752279586399
2053,0.4656068114502434
2054,0.4656068114502434
2055,0.0
2056,10.652704090394947
2057,17.293269236516037
2063,30.002229609388967
2285,10.56671785677237
2286,17.293269236516037
2,1, 7,21, 0,16, 0.00,60.00,SummerDesignDay
7,34.110250000000018
770,28.593451093412385
2050,12946.988862444987
2053,0.4656068114502434
2054,0.4656068114502434
2055,0.0
2056,13.09237892387339
2057,19.733119705744707
2063,30.002229609388967
2285,13.019976147850132
2286,19.733119705744703
2,1, 7,21, 0,17, 0.00,60.00,SummerDesignDay
7,33.44366666666667
770,29.629852070042018
2050,12951.525258639096
2053,0.4656068114502434
2054,0.4656068114502434
2055,0.0
2056,15.034830611478624
2057,21.68141909579525
2063,30.002229609388967
2285,14.963379483517393
2286,21.68141909579525
2,1, 7,21, 0,18, 0.00,60.00,SummerDesignDay
7,32.58708333333333
770,30.287395471321493
2050,12928.170890543623
2053,0.4656068114502434
2054,0.4656068114502434
2055,0.0
2056,17.808717249035419
2057,24.446994054276023
2063,30.002229609388967
2285,17.718706761213075
2286,24.446994054276027
2,1, 7,21, 0,19, 0.00,60.00,SummerDesignDay
7,31.395624999999997
770,30.06177226536638
2050,12764.85391631304
2053,0.4656068114502434
2054,0.4656068114502434
2055,0.0
2056,19.17101648077926
2057,25.727145177804588
2063,30.002229609388967
2285,19.081604167253905
2286,25.727145177804588
2,1, 7,21, 0,20, 0.00,60.00,SummerDesignDay
7,30.16379166666667
770,28.64844134574719
2050,12564.676621284232
2053,0.4656068114502434
2054,0.4656068114502434
2055,0.0
2056,17.588435420840317
2057,24.03980274990459
2063,30.002229609388967
2285,17.50070476954869
2286,24.03980274990459
2,1, 7,21, 0,21, 0.00,60.00,SummerDesignDay
7,29.215374999999999
770,27.282291154130339
2050,12595.865670034518
2053,0.4656068114502434
2054,0.4656068114502434
2055,0.0
2056,14.032911049265559
2057,20.495246545833287
2063,30.002229609388967
2285,13.960859362277393
2286,20.49524654583328
2,1, 7,21, 0,22, 0.00,60.00,SummerDesignDay
7,28.360375
770,26.34930230177539
2050,12708.105214466133
2053,0.4656068114502434
2054,0.4656068114502434
2055,0.0
2056,11.698829400418273
2057,18.214438320961255
2063,30.002229609388967
2285,11.621601705401752
2286,18.214438320961244
2,1, 7,21, 0,23, 0.00,60.00,SummerDesignDay
7,27.60195833333334
770,25.527309399598658
2050,12725.328064074687
2053,0.4656068114502434
2054,0.4656068114502434
2055,0.0
2056,10.632472538031925
2057,17.154921576178994
2063,30.002229609388967
2285,10.551347725873077
2286,17.154921576178994
2,1, 7,21, 0,24, 0.00,60.00,SummerDesignDay
7,26.936958333333334
770,24.855144129884019
2050,12606.988234166321
2053,0.4656068114502434
2054,0.46304085260238078
2055,0.0025659588478627456
2056,9.066356079214807
2057,15.524970952552942
2063,30.002229609388967
2285,8.943683298203164
2286,15.487502989481293
1,RUNPERIOD 1,  33.63, -84.43,  -5.00, 308.00
2,1, 7, 1, 0, 1, 0.00,60.00,Monday
7,21.118333333333337
770,22.44616661923136
2050,0.0
2053,0.0
2054,0.0
2055,0.0
2056,11.994369219100463
2057,11.994369219100463
2063,11.974982320833182
2285,8.81169741649352
2286,8.81169741649352
2,1, 7, 1, 0, 2, 0.00,60.00,Monday
7,22.098333333333334
770,22.489150797372134
2050,0.0
2053,0.0
2054,0.0
2055,0.0
2056,11.994369219100463
2057,11.994369219100463
2063,11.974982320833182
2285,8.81169741649352
2286,8.81169741649352
2,1, 7, 1, 0, 3, 0.00,60.00,Monday
7,21.949166666666675
770,22.468428468983558
2050,0.0
2053,0.0
2054,0.0
2055,0.0
2056,11.994369219100463
2057,11.994369219100463
2063,11.974982320833182
2285,8.81169741649352
2286,8.81169741649352
2,1, 7, 1, 0, 4, 0.00,60.00,Monday
7,21.79833333333333
770,22.442145872677786
2050,0.0
2053,0.0
2054,0.0
2055,0.0
2056,11.994369219100463
2057,11.994369219100463
2063,11.974982320833182
2285,8.81169741649352
2286,8.81169741649352
2,1, 7, 1, 0, 5, 0.00,60.00,Monday
7,21.700000000000025
770,22.418572756171959
2050,0.0
2053,0.0
2054,0.0
2055,0.0
2056,11.994369219100463
2057,11.994369219100463
2063,11.974982320833182
2285,8.81169741649352
2286,8.81169741649352
2,1, 7, 1, 0, 6, 0.00,60.00,Monday
7,21.954166666666663
770,22.454728785253204
2050,0.0
2053,0.0
2054,0.0
2055,0.0
2056,11.994369219100463
2057,11.994369219100463
2063,12.682473267964431
2285,8.81169741649352
2286,8.81169741649352
2,1, 7, 1, 0, 7, 0.00,60.00,Monday
7,22.200000000000025
770,22.7630987385891
2050,0.0
2053,0.0
2054,0.0
2055,0.0
2056,11.994369219100463
2057,11.994369219100463
2063,18.76806009148233
2285,8.81169741649352
2286,8.81169741649352
2,1, 7, 1, 0, 8, 0.00,60.00,Monday
7,23.31833333333333
770,22.975834201225493
2050,3489.4339180234107
2053,0.116401702862561
2054,0.11156544683054685
2055,0.004836256032014126
2056,12.695165316720733
2057,14.484742973830091
2063,9.942853290761601
2285,11.72582756967106
2286,13.52880567329364
2,1, 7, 1, 0, 9, 0.00,60.00,Monday
7,25.823333333333335
770,23.631700382545586
2050,12672.971447769796
2053,0.4656068114502434
2054,0.4656068114502434
2055,0.0
2056,11.964700567582952
2057,18.46278714667738
2063,9.661831491666087
2285,11.88752001171016
2286,18.46278714667738
2,1, 7, 1, 0,10, 0.00,60.00,Monday
7,27.759166666666667
770,23.96392315879059
2050,12748.821088365386
2053,0.4656068114502434
2054,0.4656068114502434
2055,0.0
2056,10.898530208428129
2057,17.433517985885897
2063,9.661831491666087
2285,10.817388342254303
2286,17.433517985885897
2,1, 7, 1, 0,11, 0.00,60.00,Monday
7,29.164166666666668
770,24.128573272892344
2050,12749.149831236724
2053,0.4656068114502434
2054,0.4656068114502434
2055,0.0
2056,10.290288986385056
2057,16.824307159858237
2063,9.661831491666087
2285,10.206501327158725
2286,16.824307159858237
2,1, 7, 1, 0,12, 0.00,60.00,Monday
7,30.0
770,24.189165518426209
2050,12754.79248338901
2053,0.4656068114502434
2054,0.4656068114502434
2055,0.0
2056,9.729162742804258
2057,16.264938139004799
2063,9.661831491666087
2285,9.644178081037293
2286,16.264938139004799
2,1, 7, 1, 0,13, 0.00,60.00,Monday
7,30.86416666666667
770,24.00880079803649
2050,12388.966097030392
2053,0.4656068114502434
2054,0.38614151633509
2055,0.07946529511515385
2056,9.507193679181166
2057,15.855040973828899
2063,9.661831491666087
2285,7.956288878104731
2286,14.378349593690283
2,1, 7, 1, 0,14, 0.00,60.00,Monday
7,29.717500000000006
770,24.18798516821207
2050,12803.806364817332
2053,0.4656068114502434
2054,0.35588633973846375
2055,0.10972047171178011
2056,9.043988681891938
2057,15.603373809386405
2063,9.661831491666087
2285,6.924282719978777
2286,13.558270431614125
2,1, 7, 1, 0,15, 0.00,60.00,Monday
7,28.613333333333335
770,24.7327092412282
2050,12923.721237706906
2053,0.4656068114502434
2054,0.4609803173258342
2055,0.00462649412440921
2056,9.116156550992012
2057,15.737131915000719
2063,9.661831491666087
2285,8.956308380074699
2286,15.660914950201202
2,1, 7, 1, 0,16, 0.00,60.00,Monday
7,28.0275
770,24.60084419793543
2050,12779.335338458422
2053,0.4656068114502434
2054,0.4656068114502434
2055,0.0
2056,9.732798836694365
2057,16.281158569856257
2063,9.661831491666087
2285,9.647525410043386
2286,16.281158569856257
2,1, 7, 1, 0,17, 0.00,60.00,Monday
7,25.276666666666665
770,23.867188494877874
2050,11159.783218506007
2053,0.4656068114502434
2054,0.36929083042611279
2055,0.09631598102413099
2056,9.86680732597497
2057,15.585421014737659
2063,9.661831491666087
2285,8.212405706050899
2286,13.995298719947185
2,1, 7, 1, 0,18, 0.00,60.00,Monday
7,23.594999999999997
770,22.927561040559039
2050,1537.4649093314204
2053,0.0931213622900488
2054,0.05173620173765946
2055,0.0413851605523893
2056,11.843051617723019
2057,12.631240788209438
2063,9.661831491666087
2285,8.13792219564385
2286,8.935339279612672
2,1, 7, 1, 0,19, 0.00,60.00,Monday
7,23.604999999999995
770,22.93079810498328
2050,1581.0724839276477
2053,0.05432079466919513
2054,0.03610694883815542
2055,0.0182138458310397
2056,11.969011433595942
2057,12.77971561498013
2063,9.661831491666087
2285,8.173847750743287
2286,8.991029675048571
2,1, 7, 1, 0,20, 0.00,60.00,Monday
7,21.917500000000005
770,22.862347257878797
2050,0.0
2053,0.0
2054,0.0
2055,0.0
2056,11.99361453840413
2057,11.99361453840413
2063,26.355947104545057
2285,8.810971435664948
2286,8.810971435664948
2,1, 7, 1, 0,21, 0.00,60.00,Monday
7,20.304999999999994
770,22.639558514420178
2050,0.0
2053,0.0
2054,0.0
2055,0.0
2056,11.99361453840413
2057,11.99361453840413
2063,27.950821991229949
2285,8.810971435664948
2286,8.810971435664948
2,1, 7, 1, 0,22, 0.00,60.00,Monday
7,20.294999999999996
770,22.618168881293057
2050,0.0
2053,0.0
2054,0.0
2055,0.0
2056,11.99361453840413
2057,11.99361453840413
2063,25.44672086321724
2285,8.810971435664948
2286,8.810971435664948
2,1, 7, 1, 0,23, 0.00,60.00,Monday
7,20.0
770,22.585550480469217
2050,0.0
2053,0.0
2054,0.0
2055,0.0
2056,11.99361453840413
2057,11.99361453840413
2063,11.97279874008776
2285,8.810971435664948
2286,8.810971435664948
2,1, 7, 1, 0,24, 0.00,60.00,Monday
7,20.0
770,22.516635339483434
2050,0.0
2053,0.0
2054,0.0
2055,0.0
2056,11.99361453840413
2057,11.99361453840413
2063,11.97279874008776
2285,8.810971435664948
2286,8.810971435664948
2,2, 7, 2, 0, 1, 0.00,60.00,Tuesday
7,20.0
770,22.38610628124563
2050,0.0
2053,0.0
2054,0.0
2055,0.0
2056,11.99361453840413
2057,11.99361453840413
2063,11.97279874008776
2285,8.810971435664948
2286,8.810971435664948
2,2, 7, 2, 0, 2, 0.00,60.00,Tuesday
7,20.0
770,22.323014836942087
2050,0.0
2053,0.0
2054,0.0
2055,0.0
2056,11.99361453840413
2057,11.99361453840413
2063,11.97279874008776
2285,8.810971435664948
2286,8.810971435664948
2,2, 7, 2, 0, 3, 0.00,60.00,Tuesday
7,19.440833333333335
770,22.266062180118547
2050,0.0
2053,0.0
2054,0.0
2055,0.0
2056,11.99361453840413
2057,11.99361453840413
2063,11.97279874008776
2285,8.810971435664948
2286,8.810971435664948
2,2, 7, 2, 0, 4, 0.00,60.00,Tuesday
7,19.154166666666666
770,22.1627908148199
2050,0.0
2053,0.0
2054,0.0
2055,0.0
2056,11.99361453840413
2057,11.99361453840413
2063,11.97279874008776
2285,8.810971435664948
2286,8.810971435664948
2,2, 7, 2, 0, 5, 0.00,60.00,Tuesday
7,19.399999999999996
770,22.151833663363346
2050,0.0
2053,0.0
2054,0.0
2055,0.0
2056,11.99361453840413
2057,11.99361453840413
2063,11.97279874008776
2285,8.810971435664948
2286,8.810971435664948
2,2, 7, 2, 0, 6, 0.00,60.00,Tuesday
7,19.399999999999996
770,22.149860168029844
2050,0.0
2053,0.0
2054,0.0
2055,0.0
2056,11.99361453840413
2057,11.99361453840413
2063,11.97279874008776
2285,8.810971435664948
2286,8.810971435664948
2,2, 7, 2, 0, 7, 0.00,60.00,Tuesday
7,19.705
770,22.41241476842093
2050,0.0
2053,0.0
2054,0.0
2055,0.0
2056,11.99361453840413
2057,11.99361453840413
2063,12.6509319246602
2285,8.810971435664948
2286,8.810971435664948
2,2, 7, 2, 0, 8, 0.00,60.00,Tuesday
7,21.118333333333337
770,22.865097457097865
2050,2614.876441275016
2053,0.08536124876587807
2054,0.07985240250090546
2055,0.005508846264972597
2056,12.075576856431951
2057,13.416526411489914
2063,11.678218343396124
2285,9.34655560966399
2286,10.695851347218472
2,2, 7, 2, 0, 9, 0.00,60.00,Tuesday
7,23.62333333333333
770,23.56315844877448
2050,12688.98253409204
2053,0.4656068114502434
2054,0.4656068114502434
2055,0.0
2056,11.836177744512929
2057,18.34223641801957
2063,11.541046895330627
2285,11.75905399584298
2286,18.34223641801957
2,2, 7, 2, 0,10, 0.00,60.00,Tuesday
7,25.55916666666667
770,23.768149101254726
2050,12739.777978780894
2053,0.4656068114502434
2054,0.4656068114502434
2055,0.0
2056,10.774005497740167
2057,17.304125122578776
2063,11.541046895330627
2285,10.692857049301195
2286,17.304125122578776
2,2, 7, 2, 0,11, 0.00,60.00,Tuesday
7,26.65916666666666
770,23.7977329471629
2050,12376.487646704152
2053,0.4656068114502434
2054,0.40964976691378576
2055,0.05595704453645811
2056,10.08381687814873
2057,16.42647042359753
2063,11.541046895330627
2285,8.956616673375441
2286,15.380381069559075
2,2, 7, 2, 0,12, 0.00,60.00,Tuesday
7,28.06416666666667
770,23.77198463746237
2050,11115.61452059147
2053,0.4656068114502434
2054,0.2948647907021858
2055,0.17074202074805792
2056,10.070555614567665
2057,15.767018677934738
2063,11.541046895330627
2285,6.700000094243385
2286,12.442585812420243
2,2, 7, 2, 0,13, 0.00,60.00,Tuesday
7,29.459166666666666
770,23.618637639712895
2050,10145.904678600307
2053,0.4656068114502434
2054,0.2729110798444836
2055,0.19269573160576043
2056,10.45045427324899
2057,15.650527066564886
2063,11.541046895330627
2285,6.699999999999993
2286,11.946200465879782
2,2, 7, 2, 0,14, 0.00,60.00,Tuesday
7,29.440833333333328
770,24.354658802242914
2050,12694.823758611326
2053,0.4656068114502434
2054,0.40152200832669379
2055,0.06408480312354974
2056,9.272803961920277
2057,15.776815776303847
2063,11.541046895330627
2285,7.9796886824055639
2286,14.553002363251478
2,2, 7, 2, 0,15, 0.00,60.00,Tuesday
7,29.76416666666667
770,25.336020967695736
2050,12878.140546022592
2053,0.4656068114502434
2054,0.4656068114502434
2055,0.0
2056,10.228873568736122
2057,16.828859935019318
2063,11.541046895330627
2285,10.14278925952998
2286,16.828859935019318
2,2, 7, 2, 0,16, 0.00,60.00,Tuesday
7,30.854166666666669
770,26.678026711292728
2050,12919.826392623214
2053,0.4656068114502434
2054,0.4656068114502434
2055,0.0
2056,11.99134287958722
2057,18.616061318914963
2063,11.541046895330627
2285,11.9087250400214
2286,18.61606131891496
2,2, 7, 2, 0,17, 0.00,60.00,Tuesday
7,30.84583333333334
770,27.76817696174
2050,12921.286849959013
2053,0.4656068114502434
2054,0.4656068114502434
2055,0.0
2056,13.764522471612647
2057,20.393357085407119
2063,11.541046895330627
2285,13.700667935711074
2286,20.393357085407115
2,2, 7, 2, 0,18, 0.00,60.00,Tuesday
7,30.59999999999997
770,27.899655698179239
2050,12897.697438945737
2053,0.4656068114502434
2054,0.4656068114502434
2055,0.0
2056,15.174706428694055
2057,21.793928405092939
2063,11.541046895330627
2285,15.100319735719494
2286,21.793928405092939
2,2, 7, 2, 0,19, 0.00,60.00,Tuesday
7,29.430833333333337
770,26.979505636949207
2050,12747.783438197603
2053,0.4656068114502434
2054,0.4656068114502434
2055,0.0
2056,16.122397674713864
2057,22.665943160781916
2063,12.156646226981783
2285,16.03595891359806
2286,22.665943160781916
2,2, 7, 2, 0,20, 0.00,60.00,Tuesday
7,26.927500000000003
770,25.40479721135953
2050,12644.414330971842
2053,0.4656068114502434
2054,0.4656068114502434
2055,0.0
2056,14.439244371038216
2057,20.927238093494986
2063,29.855162812246136
2285,14.369398272296689
2286,20.927238093494986
2,2, 7, 2, 0,21, 0.00,60.00,Tuesday
7,24.430833333333334
770,23.78272055668007
2050,12649.977049299168
2053,0.4656068114502434
2054,0.4644338453458855
2055,0.0011729661043578884
2056,11.887401321470805
2057,18.37355714865398
2063,29.65077587496727
2285,11.794128191322669
2286,18.356692271589638
2,2, 7, 2, 0,22, 0.00,60.00,Tuesday
7,23.045833333333339
770,23.014668603404674
2050,4823.975953665488
2053,0.20176295162843897
2054,0.13890230854742273
2055,0.06286064308101627
2056,11.856958136827347
2057,14.330259671317599
2063,25.544190347236826
2285,8.681233699779013
2286,11.182552253142806
2,2, 7, 2, 0,23, 0.00,60.00,Tuesday
7,22.494999999999999
770,22.90695761655941
2050,0.0
2053,0.0
2054,0.0
2055,0.0
2056,11.984910269572803
2057,11.984910269572803
2063,13.042975529757993
2285,8.489638993935284
2286,8.489638993935284
2,2, 7, 2, 0,24, 0.00,60.00,Tuesday
7,21.640833333333334
770,22.86281474921158
2050,0.0
2053,0.0
2054,0.0
2055,0.0
2056,11.984910269572803
2057,11.984910269572803
2063,11.965178910848265
2285,8.489638993935284
2286,8.489638993935284
End of Data
 Number of Records Written=        1056
