Program Version,EnergyPlus, Version 9.4.0-998c4b761e, YMD=2021.07.13 17:53
1,5,Environment Title[],Latitude[deg],Longitude[deg],Time Zone[],Elevation[m]
2,8,Day of Simulation[],Month[],Day of Month[],DST Indicator[1=yes 0=no],Hour[],StartMinute[],EndMinute[],DayType
3,5,Cumulative Day of Simulation[],Month[],Day of Month[],DST Indicator[1=yes 0=no],DayType  ! When Daily Report Variables Requested
4,2,Cumulative Days of Simulation[],Month[]  ! When Monthly Report Variables Requested
5,1,Cumulative Days of Simulation[] ! When Run Period Report Variables Requested
6,1,Calendar Year of Simulation[] ! When Annual Report Variables Requested
7,1,Environment,Site Outdoor Air Drybulb Temperature [C] !Hourly
770,1,PERIMETER_TOP_ZN_4,Zone Mean Air Temperature [C] !Hourly
2050,1,PERI1_TOP_LOTEMP,Zone Radiant HVAC Cooling Rate [W] !Hourly
2053,1,PERI1_TOP_LOTEMP,Zone Radiant HVAC Mass Flow Rate [kg/s] !Hourly
2054,1,PERI1_TOP_LOTEMP,Zone Radiant HVAC Injection Mass Flow Rate [kg/s] !Hourly
2055,1,PERI1_TOP_LOTEMP,Zone Radiant HVAC Recirculation Mass Flow Rate [kg/s] !Hourly
2056,1,PERI1_TOP_LOTEMP,Zone Radiant HVAC Inlet Temperature [C] !Hourly
2057,1,PERI1_TOP_LOTEMP,Zone Radiant HVAC Outlet Temperature [C] !Hourly
2063,1,PERI2_TOP_LOTEMP,Zone Radiant HVAC Outlet Temperature [C] !Hourly
2285,1,PERI1_TOP_LOTEMP_CHW_INLET,System Node Temperature [C] !Hourly
2286,1,PERI1_TOP_LOTEMP_CHW_OUTLET,System Node Temperature [C] !Hourly
End of Data Dictionary
1,ATLANTA-HARTSFIELD.JACKSON.INTL.AP_GA_USA ANN HTG 99.6% CONDNS DB,  33.63, -84.43,  -5.00, 308.00
2,1, 1,21, 0, 1, 0.00,60.00,WinterDesignDay
7,-6.300000000000007
770,19.370114395585316
2050,0.0
2053,0.01657825817705239
2054,0.003722487035340296
2055,0.012855771141712092
2056,30.02147566483745
2057,29.771117737090159
2063,24.845385706168643
2285,12.20000000000001
2286,12.20000000000001
2,1, 1,21, 0, 2, 0.00,60.00,WinterDesignDay
7,-6.300000000000007
770,19.14638180007719
2050,0.0
2053,0.0
2054,0.0
2055,0.0
2056,30.02147566483745
2057,30.02147566483745
2063,24.844832055171353
2285,12.20000000000001
2286,12.20000000000001
2,1, 1,21, 0, 3, 0.00,60.00,WinterDesignDay
7,-6.300000000000007
770,19.353901398991636
2050,0.0
2053,0.06631303270820956
2054,0.014923723250792614
2055,0.05138930945741693
2056,30.02400154224925
2057,29.02030154088403
2063,23.57262364865985
2285,12.20000000000001
2286,12.20000000000001
2,1, 1,21, 0, 4, 0.00,60.00,WinterDesignDay
7,-6.300000000000007
770,19.1615742619753
2050,0.0
2053,0.0
2054,0.0
2055,0.0
2056,30.021751650947178
2057,30.021751650947178
2063,24.328542343615717
2285,12.20000000000001
2286,12.20000000000001
2,1, 1,21, 0, 5, 0.00,60.00,WinterDesignDay
7,-6.300000000000007
770,19.336942475076488
2050,0.0
2053,0.06631303270820956
2054,0.014929767721227509
2055,0.05138326498698204
2056,30.029716801258468
2057,29.025610861486347
2063,24.83237107711738
2285,12.20000000000001
2286,12.20000000000001
2,1, 1,21, 0, 6, 0.00,60.00,WinterDesignDay
7,-6.300000000000007
770,19.176732605944009
2050,0.0
2053,0.0
2054,0.0
2055,0.0
2056,30.027762202572437
2057,30.027762202572437
2063,24.328642878646286
2285,12.20000000000001
2286,12.20000000000001
2,1, 1,21, 0, 7, 0.00,60.00,WinterDesignDay
7,-6.300000000000007
770,19.463947234668284
2050,0.0
2053,0.0
2054,0.0
2055,0.0
2056,30.027762202572437
2057,30.027762202572437
2063,24.358790909420838
2285,12.20000000000001
2286,12.20000000000001
2,1, 1,21, 0, 8, 0.00,60.00,WinterDesignDay
7,-6.300000000000007
770,19.389949948642707
2050,0.0
2053,0.0
2054,0.0
2055,0.0
2056,30.027762202572437
2057,30.027762202572437
2063,24.810659958736438
2285,12.20000000000001
2286,12.20000000000001
2,1, 1,21, 0, 9, 0.00,60.00,WinterDesignDay
7,-6.300000000000007
770,19.272263937390798
2050,0.0
2053,0.0
2054,0.0
2055,0.0
2056,30.027762202572437
2057,30.027762202572437
2063,24.785114003617659
2285,12.20000000000001
2286,12.20000000000001
2,1, 1,21, 0,10, 0.00,60.00,WinterDesignDay
7,-6.300000000000007
770,19.184729303018068
2050,0.0
2053,0.0
2054,0.0
2055,0.0
2056,30.027762202572437
2057,30.027762202572437
2063,24.783937078853908
2285,12.20000000000001
2286,12.20000000000001
2,1, 1,21, 0,11, 0.00,60.00,WinterDesignDay
7,-6.300000000000007
770,19.120663176161558
2050,0.0
2053,0.0
2054,0.0
2055,0.0
2056,30.027762202572437
2057,30.027762202572437
2063,24.534629775720654
2285,12.20000000000001
2286,12.20000000000001
2,1, 1,21, 0,12, 0.00,60.00,WinterDesignDay
7,-6.300000000000007
770,19.06664990433028
2050,0.0
2053,0.0
2054,0.0
2055,0.0
2056,30.027762202572437
2057,30.027762202572437
2063,24.03408897704729
2285,12.20000000000001
2286,12.20000000000001
2,1, 1,21, 0,13, 0.00,60.00,WinterDesignDay
7,-6.300000000000007
770,19.020255601121979
2050,0.0
2053,0.0
2054,0.0
2055,0.0
2056,30.027762202572437
2057,30.027762202572437
2063,24.034970822329695
2285,12.20000000000001
2286,12.20000000000001
2,1, 1,21, 0,14, 0.00,60.00,WinterDesignDay
7,-6.300000000000007
770,19.056773624422413
2050,0.0
2053,0.03315651635410478
2054,0.007436796500418615
2055,0.02571971985368616
2056,30.005187052521415
2057,29.505020391514639
2063,24.78868880065004
2285,12.20000000000001
2286,12.20000000000001
2,1, 1,21, 0,15, 0.00,60.00,WinterDesignDay
7,-6.300000000000007
770,19.041196687326825
2050,0.0
2053,0.0
2054,0.0
2055,0.0
2056,30.00519350846342
2057,30.00519350846342
2063,24.789409058802155
2285,12.20000000000001
2286,12.20000000000001
2,1, 1,21, 0,16, 0.00,60.00,WinterDesignDay
7,-6.300000000000007
770,19.03628073307518
2050,0.0
2053,0.04973477453115716
2054,0.011155038247452266
2055,0.0385797362837049
2056,30.003315622765073
2057,29.25307614179516
2063,24.789932995407534
2285,12.20000000000001
2286,12.20000000000001
2,1, 1,21, 0,17, 0.00,60.00,WinterDesignDay
7,-6.300000000000007
770,19.112147392956265
2050,0.0
2053,0.0
2054,0.0
2055,0.0
2056,30.00012707779501
2057,30.00012707779501
2063,24.789961029511536
2285,12.20000000000001
2286,12.20000000000001
2,1, 1,21, 0,18, 0.00,60.00,WinterDesignDay
7,-6.300000000000007
770,19.057637053290756
2050,0.0
2053,0.0
2054,0.0
2055,0.0
2056,30.00012707779501
2057,30.00012707779501
2063,24.03714324343887
2285,12.20000000000001
2286,12.20000000000001
2,1, 1,21, 0,19, 0.00,60.00,WinterDesignDay
7,-6.300000000000007
770,19.91229112697639
2050,0.0
2053,0.23209561447873348
2054,0.05969051958983748
2055,0.1724050948888959
2056,30.71357040481528
2057,26.699785642556678
2063,24.12312907638346
2285,12.20000000000001
2286,12.20000000000001
2,1, 1,21, 0,20, 0.00,60.00,WinterDesignDay
7,-6.300000000000007
770,20.06272447528079
2050,0.0
2053,0.0
2054,0.0
2055,0.0
2056,30.266378032791235
2057,30.266378032791235
2063,23.838111046416026
2285,12.20000000000001
2286,12.20000000000001
2,1, 1,21, 0,21, 0.00,60.00,WinterDesignDay
7,-6.300000000000007
770,19.54379621862756
2050,0.0
2053,0.0
2054,0.0
2055,0.0
2056,30.266378032791235
2057,30.266378032791235
2063,24.851440826004745
2285,12.20000000000001
2286,12.20000000000001
2,1, 1,21, 0,22, 0.00,60.00,WinterDesignDay
7,-6.300000000000007
770,19.139783032511479
2050,0.0
2053,0.06631303270820956
2054,0.014943156268849028
2055,0.051369876439360518
2056,30.253624593678237
2057,29.24861949727182
2063,24.85193740141149
2285,12.20000000000001
2286,12.20000000000001
2,1, 1,21, 0,23, 0.00,60.00,WinterDesignDay
7,-6.300000000000007
770,19.36090377702056
2050,0.0
2053,0.0
2054,0.0
2055,0.0
2056,30.052548618583665
2057,30.052548618583665
2063,23.57853432224343
2285,12.20000000000001
2286,12.20000000000001
2,1, 1,21, 0,24, 0.00,60.00,WinterDesignDay
7,-6.300000000000007
770,19.126620594411656
2050,0.0
2053,0.04973477453115716
2054,0.0111808028275836
2055,0.03855397170357356
2056,30.052049779480084
2057,29.300079984378294
2063,24.334000993749436
2285,12.20000000000001
2286,12.20000000000001
1,ATLANTA-HARTSFIELD.JACKSON.INTL.AP_GA_USA ANN CLG .4% CONDNS DB=>MWB,  33.63, -84.43,  -5.00, 308.00
2,1, 7,21, 0, 1, 0.00,60.00,SummerDesignDay
7,26.32025
770,22.957210446288117
2050,3473.6455588850287
2053,0.2697569925910225
2054,0.10241716184117701
2055,0.16733983074984544
2056,11.965907837638876
2057,12.78569924239977
2063,26.8725947497553
2285,6.842519355321836
2286,7.667974836970382
2,1, 7,21, 0, 2, 0.00,60.00,SummerDesignDay
7,25.84683333333334
770,22.96311714826487
2050,4312.287483699808
2053,0.3371962407387781
2054,0.1312034749167663
2055,0.2059927658220117
2056,11.974935883685373
2057,12.992655610770719
2063,27.109214652156746
2285,7.091186771739051
2286,8.115986637656088
2,1, 7,21, 0, 3, 0.00,60.00,SummerDesignDay
7,25.515125
770,22.96718737415426
2050,4318.227414525564
2053,0.3371962407387781
2054,0.13463410704453514
2055,0.2025621336942429
2056,11.975701200529285
2057,12.99482154361868
2063,26.527862436703644
2285,7.259647238645708
2286,8.285847712039577
2,1, 7,21, 0, 4, 0.00,60.00,SummerDesignDay
7,25.230124999999995
770,22.95300643355472
2050,2807.6982720061175
2053,0.21917755648020577
2054,0.08913064820241987
2055,0.13004690827778585
2056,11.971516792558158
2057,12.634145547733063
2063,27.36870784822806
2285,7.399556870345422
2286,8.066787708992827
2,1, 7,21, 0, 5, 0.00,60.00,SummerDesignDay
7,24.993416666666673
770,22.95234175356918
2050,3677.6143816210226
2053,0.28661680462796138
2054,0.1183794289233612
2055,0.16823737570460005
2056,11.974392284579239
2057,12.842323714023373
2063,27.298965212453905
2285,7.530586973682223
2286,8.404536503662392
2,1, 7,21, 0, 6, 0.00,60.00,SummerDesignDay
7,24.996583333333335
770,22.973793082912363
2050,4554.578652120991
2053,0.354056052775717
2054,0.1468214201469755
2055,0.20723463262874143
2056,11.959307576169408
2057,13.03420358263084
2063,26.82092036165816
2285,7.551384726881874
2286,8.633714840835945
2,1, 7,21, 0, 7, 0.00,60.00,SummerDesignDay
7,25.42804166666666
770,22.989799136220055
2050,6519.841459051219
2053,0.48893454907122826
2054,0.2048046205962384
2055,0.28412992847498966
2056,11.898276109960693
2057,13.436929858508309
2063,29.33566830652016
2285,7.370898238353159
2286,8.919817805102172
2,1, 7,21, 0, 8, 0.00,60.00,SummerDesignDay
7,26.575958333333334
770,22.98220386697907
2050,5474.063144176645
2053,0.42149530092347267
2054,0.16040276424664816
2055,0.2610925366768243
2056,11.945252186359483
2057,13.237138624693538
2063,29.26871773840322
2285,6.897947326266698
2286,8.198683818030839
2,1, 7,21, 0, 9, 0.00,60.00,SummerDesignDay
7,28.287541666666664
770,22.98993719855384
2050,5931.022850770519
2053,0.45521492499735047
2054,0.1717608695393951
2055,0.28345405545795529
2056,11.946880953507622
2057,13.346606343320282
2063,30.032301216594019
2285,6.700000025652105
2286,8.10928344585756
2,1, 7,21, 0,10, 0.00,60.00,SummerDesignDay
7,29.995958333333328
770,22.993046817441767
2050,5958.841135094149
2053,0.45521492499735047
2054,0.17256028780830003
2055,0.28265463718905028
2056,11.936444608179878
2057,13.3427292001092
2063,29.530376698866509
2285,6.699999999999993
2286,8.115842582419177
2,1, 7,21, 0,11, 0.00,60.00,SummerDesignDay
7,31.514374999999995
770,22.998804182011889
2050,6402.822257927197
2053,0.48893454907122826
2054,0.1854168385442396
2055,0.30351771052698858
2056,11.927310399762258
2057,13.438373908689379
2063,28.51337098709821
2285,6.699999999999993
2286,8.221329495000111
2,1, 7,21, 0,12, 0.00,60.00,SummerDesignDay
7,32.697916666666667
770,22.996927548128967
2050,6392.349485932389
2053,0.48893454907122826
2054,0.1851158770319136
2055,0.30381867203931459
2056,11.934652004077286
2057,13.443246134198145
2063,28.300589287940566
2285,6.699999999999993
2286,8.21886013121872
2,1, 7,21, 0,13, 0.00,60.00,SummerDesignDay
7,33.55133333333333
770,23.00789785868135
2050,7072.239808116619
2053,0.539513985182045
2054,0.20480066469146417
2055,0.3347133204905806
2056,11.917963512565514
2057,13.587007688911836
2063,28.047332212006795
2285,6.699999999999993
2286,8.380372150862737
2,1, 7,21, 0,14, 0.00,60.00,SummerDesignDay
7,34.16645833333333
770,23.06306990773727
2050,11523.868154122581
2053,0.8598504138838831
2054,0.33365640954201467
2055,0.5261940043418693
2056,11.829713347899152
2057,14.549282401510008
2063,27.804941637143654
2285,6.699999999999993
2286,9.437622650765852
2,1, 7,21, 0,15, 0.00,60.00,SummerDesignDay
7,34.40000000000004
770,23.060017675409705
2050,12912.256859886753
2053,0.9778690981424549
2054,0.37389735264078957
2055,0.6039717455016667
2056,11.852724378435476
2057,14.899988748312856
2063,28.551222033079847
2285,6.699999999999993
2286,9.767796189067124
2,1, 7,21, 0,16, 0.00,60.00,SummerDesignDay
7,34.110250000000018
770,23.07226998440376
2050,13481.830801564463
2053,1.0115887222163327
2054,0.3903631763813181
2055,0.6212255458350157
2056,11.818342752867649
2057,15.0
2063,28.03404099359211
2285,6.699999999999993
2286,9.90289688171518
2,1, 7,21, 0,17, 0.00,60.00,SummerDesignDay
7,33.44366666666667
770,23.04059216528369
2050,12301.142575508136
2053,0.9441494740685773
2054,0.35623789500376598
2055,0.5879115790648125
2056,11.896902463410984
2057,14.79998023115981
2063,28.039418093089706
2285,6.699999999999993
2286,9.622901831144507
2,1, 7,21, 0,18, 0.00,60.00,SummerDesignDay
7,32.58708333333333
770,23.027192897214304
2050,8856.639884502478
2053,0.6743924814775557
2054,0.25647037565935268
2055,0.41792210581820329
2056,11.905835287451481
2057,13.99599310670458
2063,27.107207940276905
2285,6.699999999999993
2286,8.804317763951298
2,1, 7,21, 0,19, 0.00,60.00,SummerDesignDay
7,31.395624999999997
770,22.973218950542415
2050,3891.525050337833
2053,0.3034766166649003
2054,0.11271142434066679
2055,0.1907651923242334
2056,11.961370843119927
2057,12.879786447293549
2063,27.314113622264196
2285,6.699999999999993
2286,7.624787714099749
2,1, 7,21, 0,20, 0.00,60.00,SummerDesignDay
7,30.16379166666667
770,22.9367162561595
2050,2163.1333487115127
2053,0.16859812036938905
2054,0.06265123129801216
2055,0.10594688907137683
2056,11.980839649267323
2057,12.491347649486773
2063,27.054149692165063
2285,6.699999999999993
2286,7.214048059604889
2,1, 7,21, 0,21, 0.00,60.00,SummerDesignDay
7,29.215374999999999
770,22.98216543875718
2050,5235.192629379136
2053,0.4046354888865337
2054,0.1516180097946663
2055,0.2530174790918673
2056,11.953547049331526
2057,13.189063930135008
2063,27.094655008330279
2285,6.699999999999993
2286,7.944012960661106
2,1, 7,21, 0,22, 0.00,60.00,SummerDesignDay
7,28.360375
770,22.974306193353415
2050,5211.73265712893
2053,0.4046354888865337
2054,0.15094381631336516
2055,0.25369167257316846
2056,11.966129531909129
2057,13.196114678499706
2063,26.827301037495105
2285,6.699999999999993
2286,7.938481260107409
2,1, 7,21, 0,23, 0.00,60.00,SummerDesignDay
7,27.60195833333334
770,22.87046897716511
2050,2616.5438516131168
2053,0.20231774444326687
2054,0.07577875819217796
2055,0.12653898625108887
2056,11.978329825131928
2057,12.595840092365645
2063,26.573959705828654
2285,6.699999999999993
2286,7.321758308670198
2,1, 7,21, 0,24, 0.00,60.00,SummerDesignDay
7,26.936958333333334
770,22.96691328835995
2050,4320.016978904764
2053,0.3371962407387781
2054,0.12519031121496236
2055,0.21200592952381565
2056,11.969314958651634
2057,12.988857280524666
2063,26.57244742146445
2285,6.70250622610581
2286,7.729128675712635
1,RUNPERIOD 1,  33.63, -84.43,  -5.00, 308.00
2,1, 7, 1, 0, 1, 0.00,60.00,Monday
7,21.118333333333337
770,22.89076493693524
2050,0.0
2053,0.0
2054,0.0
2055,0.0
2056,11.998785797125264
2057,11.998785797125264
2063,11.98909292536621
2285,10.019814964623454
2286,10.019814964623454
2,1, 7, 1, 0, 2, 0.00,60.00,Monday
7,22.098333333333334
770,22.95349291435675
2050,0.0
2053,0.0
2054,0.0
2055,0.0
2056,11.998785797125264
2057,11.998785797125264
2063,11.98909292536621
2285,10.019814964623454
2286,10.019814964623454
2,1, 7, 1, 0, 3, 0.00,60.00,Monday
7,21.949166666666675
770,22.922085885050856
2050,0.0
2053,0.0
2054,0.0
2055,0.0
2056,11.998785797125264
2057,11.998785797125264
2063,11.98909292536621
2285,10.019814964623454
2286,10.019814964623454
2,1, 7, 1, 0, 4, 0.00,60.00,Monday
7,21.79833333333333
770,22.881092379715708
2050,0.0
2053,0.0
2054,0.0
2055,0.0
2056,11.998785797125264
2057,11.998785797125264
2063,11.98909292536621
2285,10.019814964623454
2286,10.019814964623454
2,1, 7, 1, 0, 5, 0.00,60.00,Monday
7,21.700000000000025
770,22.843062907342167
2050,0.0
2053,0.0
2054,0.0
2055,0.0
2056,11.998785797125264
2057,11.998785797125264
2063,11.98909292536621
2285,10.019814964623454
2286,10.019814964623454
2,1, 7, 1, 0, 6, 0.00,60.00,Monday
7,21.954166666666663
770,22.866720148517449
2050,0.0
2053,0.0
2054,0.0
2055,0.0
2056,11.998785797125264
2057,11.998785797125264
2063,13.042910401488037
2285,10.019814964623454
2286,10.019814964623454
2,1, 7, 1, 0, 7, 0.00,60.00,Monday
7,22.200000000000025
770,22.897792765539124
2050,2598.282563491811
2053,0.20231774444326687
2054,0.10455508755712391
2055,0.0977626568861429
2056,11.98304855564205
2057,12.596252933710293
2063,15.0
2285,9.020574966000075
2286,9.63802741171334
2,1, 7, 1, 0, 8, 0.00,60.00,Monday
7,23.31833333333333
770,22.952061208255207
2050,1927.6120233435602
2053,0.15173830833245015
2054,0.07257697110712143
2055,0.07916133722532866
2056,11.983550525443683
2057,12.438478520320813
2063,23.070751799979555
2285,8.627059361106065
2286,9.085173436986926
2,1, 7, 1, 0, 9, 0.00,60.00,Monday
7,25.823333333333335
770,23.31930890129114
2050,14007.402995849536
2053,0.8092709777730665
2054,0.43676341167561846
2055,0.37250756609744886
2056,11.094557226588057
2057,14.39929023721961
2063,30.431767469265198
2285,7.203487270018527
2286,10.525207369183267
2,1, 7, 1, 0,10, 0.00,60.00,Monday
7,27.759166666666667
770,22.90174430708725
2050,3345.120914687955
2053,0.25289718055408358
2054,0.09687780391629887
2055,0.15601937663778468
2056,11.947936997052548
2057,12.737377007766593
2063,27.3172227119269
2285,6.7090286783857169
2286,7.503778634103172
2,1, 7, 1, 0,11, 0.00,60.00,Monday
7,29.164166666666668
770,22.980614312211555
2050,5690.394701402822
2053,0.4383551129604115
2054,0.16479701085336455
2055,0.2735581021070469
2056,11.939752582511043
2057,13.282694074024376
2063,29.508615778280637
2285,6.7000000006137558
2286,8.052145551473647
2,1, 7, 1, 0,12, 0.00,60.00,Monday
7,30.0
770,22.97844742721532
2050,5237.97484967636
2053,0.4046354888865337
2054,0.1516979618050722
2055,0.25293752708146147
2056,11.955003758685385
2057,13.19117664296551
2063,27.76928448185156
2285,6.699999999999993
2286,7.944668960151605
2,1, 7, 1, 0,13, 0.00,60.00,Monday
7,30.86416666666667
770,22.908834141855008
2050,2849.58085873063
2053,0.21917755648020577
2054,0.08252447520189632
2055,0.13665308127830939
2056,11.957630257871563
2057,12.630134581297295
2063,27.89239300453131
2285,6.699999999999993
2286,7.377106346811619
2,1, 7, 1, 0,14, 0.00,60.00,Monday
7,29.717500000000006
770,23.015325197081144
2050,7855.171169022428
2053,0.5732336092559226
2054,0.22739705375038328
2055,0.34583655550553946
2056,11.82727590992928
2057,13.68101404007291
2063,25.123500391262444
2285,6.699999999999993
2286,8.565773613997
2,1, 7, 1, 0,15, 0.00,60.00,Monday
7,28.613333333333335
770,23.006244276826899
2050,6771.689458084666
2053,0.5057943611081671
2054,0.196065708872625
2055,0.309728652235542
2056,11.893514253469796
2057,13.491597056665074
2063,29.35502979673037
2285,6.699999999999993
2286,8.308702576356686
2,1, 7, 1, 0,16, 0.00,60.00,Monday
7,28.0275
770,22.88498051648484
2050,1495.455535073679
2053,0.11801868425857233
2054,0.043317364558379849
2055,0.07470131970019246
2056,11.990261860484118
2057,12.34319910849266
2063,27.092869214056554
2285,6.699999999999993
2286,7.0554153164606518
2,1, 7, 1, 0,17, 0.00,60.00,Monday
7,25.276666666666665
770,22.95574149567242
2050,3891.7534116749277
2053,0.3034766166649003
2054,0.12041509047405703
2055,0.1830615261908432
2056,11.95995916062777
2057,12.878428710814415
2063,28.573899069811526
2285,7.168281929973809
2286,8.093123589763838
2,1, 7, 1, 0,18, 0.00,60.00,Monday
7,23.594999999999997
770,22.632960069047419
2050,0.0
2053,0.0
2054,0.0
2055,0.0
2056,11.969107274734134
2057,11.969107274734134
2063,27.511943287452497
2285,7.796367182464292
2286,7.796367182464292
2,1, 7, 1, 0,19, 0.00,60.00,Monday
7,23.604999999999995
770,22.911598812135556
2050,3662.362186986089
2053,0.28661680462796138
2054,0.12779080403156868
2055,0.15882600059639263
2056,11.963525190803497
2057,12.82786021355946
2063,26.33339175629991
2285,7.885155740796474
2286,8.755508885980987
2,1, 7, 1, 0,20, 0.00,60.00,Monday
7,21.917500000000005
770,22.90452528342178
2050,212.39785565541147
2053,0.0168598120369389
2054,0.007402086145344556
2055,0.009457725891594346
2056,11.992348162400058
2057,12.042475693026724
2063,28.12318357513778
2285,8.108677920273758
2286,8.159159462459098
2,1, 7, 1, 0,21, 0.00,60.00,Monday
7,20.304999999999994
770,22.938560941641584
2050,1490.2977134496182
2053,0.11801868425857233
2054,0.0657265628801588
2055,0.05229212137841352
2056,11.99180844895175
2057,12.343529475034347
2063,26.557906661427134
2285,8.41102152588897
2286,8.765220627832804
2,1, 7, 1, 0,22, 0.00,60.00,Monday
7,20.294999999999996
770,22.961231167208149
2050,2358.5827455361229
2053,0.18545793240632797
2054,0.11115825141624056
2055,0.07429968099008734
2056,11.989343336704574
2057,12.545982467362086
2063,16.00025287287097
2285,9.826540519076512
2286,10.387073744991002
2,1, 7, 1, 0,23, 0.00,60.00,Monday
7,20.0
770,22.959383561493647
2050,1274.4583381002047
2053,0.10115887222163342
2054,0.06135987438412485
2055,0.03979899783750854
2056,11.99455275805283
2057,12.29533472986412
2063,14.49797046604156
2285,9.973191654156427
2286,10.276097695205709
2,1, 7, 1, 0,24, 0.00,60.00,Monday
7,20.0
770,22.958808143940286
2050,0.0
2053,0.0
2054,0.0
2055,0.0
2056,11.996769660851897
2057,11.996769660851897
2063,11.987822796249369
2285,10.019616152666297
2286,10.019616152666297
2,2, 7, 2, 0, 1, 0.00,60.00,Tuesday
7,20.0
770,22.90507591268766
2050,0.0
2053,0.0
2054,0.0
2055,0.0
2056,11.996769660851897
2057,11.996769660851897
2063,11.987822796249369
2285,10.019616152666297
2286,10.019616152666297
2,2, 7, 2, 0, 2, 0.00,60.00,Tuesday
7,20.0
770,22.84612497849664
2050,0.0
2053,0.0
2054,0.0
2055,0.0
2056,11.996769660851897
2057,11.996769660851897
2063,11.987822796249369
2285,10.019616152666297
2286,10.019616152666297
2,2, 7, 2, 0, 3, 0.00,60.00,Tuesday
7,19.440833333333335
770,22.773973135557225
2050,0.0
2053,0.0
2054,0.0
2055,0.0
2056,11.996769660851897
2057,11.996769660851897
2063,11.987822796249369
2285,10.019616152666297
2286,10.019616152666297
2,2, 7, 2, 0, 4, 0.00,60.00,Tuesday
7,19.154166666666666
770,22.66093351499305
2050,0.0
2053,0.0
2054,0.0
2055,0.0
2056,11.996769660851897
2057,11.996769660851897
2063,11.987822796249369
2285,10.019616152666297
2286,10.019616152666297
2,2, 7, 2, 0, 5, 0.00,60.00,Tuesday
7,19.399999999999996
770,22.66709903269353
2050,0.0
2053,0.0
2054,0.0
2055,0.0
2056,11.996769660851897
2057,11.996769660851897
2063,11.987822796249369
2285,10.019616152666297
2286,10.019616152666297
2,2, 7, 2, 0, 6, 0.00,60.00,Tuesday
7,19.399999999999996
770,22.682981334996425
2050,0.0
2053,0.0
2054,0.0
2055,0.0
2056,11.996769660851897
2057,11.996769660851897
2063,11.987822796249369
2285,10.019616152666297
2286,10.019616152666297
2,2, 7, 2, 0, 7, 0.00,60.00,Tuesday
7,19.705
770,22.923641588438639
2050,1926.2740205625208
2053,0.15173830833245015
2054,0.09427696923326548
2055,0.05746133909918462
2056,11.992391699426138
2057,12.44700419079211
2063,13.244107489816205
2285,10.04039188959089
2286,10.498190463881077
2,2, 7, 2, 0, 8, 0.00,60.00,Tuesday
7,21.118333333333337
770,22.955832451945058
2050,1925.6027481954166
2053,0.15173830833245015
2054,0.08598211449421069
2055,0.06575619383823941
2056,11.98638227847895
2057,12.44083648663924
2063,23.53639564606703
2285,9.711699282053799
2286,10.169339574107964
2,2, 7, 2, 0, 9, 0.00,60.00,Tuesday
7,23.62333333333333
770,23.297166087804805
2050,13665.886463445126
2053,0.7924111657361277
2054,0.49715392437499325
2055,0.2952572413611351
2056,11.124998823462099
2057,14.349173266850919
2063,29.55571949671056
2285,8.29440793545371
2286,11.5352156409026
2,2, 7, 2, 0,10, 0.00,60.00,Tuesday
7,25.55916666666667
770,22.86977717827746
2050,2867.98181170738
2053,0.21917755648020577
2054,0.0887645563077535
2055,0.1304130001724522
2056,11.961402364558941
2057,12.638245465427785
2063,28.53755442271773
2285,7.539084257467298
2286,8.220529355326976
2,2, 7, 2, 0,11, 0.00,60.00,Tuesday
7,26.65916666666666
770,22.972434988078996
2050,5266.799196199741
2053,0.4046354888865337
2054,0.15421930752831518
2055,0.25041618135821838
2056,11.942761776134266
2057,13.185731197505458
2063,27.083740817249227
2285,6.850175016703947
2286,8.101640472590065
2,2, 7, 2, 0,12, 0.00,60.00,Tuesday
7,28.06416666666667
770,22.954925412238209
2050,3271.450697336569
2053,0.25289718055408358
2054,0.0947455968669248
2055,0.15815158368715866
2056,11.961137189508462
2057,12.733206747669897
2063,28.087694354750803
2285,6.7000002140585599
2286,7.477379822923321
2,2, 7, 2, 0,13, 0.00,60.00,Tuesday
7,29.459166666666666
770,22.974664335209249
2050,4587.726992455802
2053,0.354056052775717
2054,0.13286500219189063
2055,0.22119105058382625
2056,11.94803071327322
2057,13.030742770994756
2063,26.834611113891289
2285,6.700000000000008
2286,7.790146117659925
2,2, 7, 2, 0,14, 0.00,60.00,Tuesday
7,29.440833333333328
770,23.069277258753176
2050,10582.880924548
2053,0.7755513536991888
2054,0.3063701389650959
2055,0.4691812147340936
2056,11.800896901451719
2057,14.29835464163038
2063,27.790118962773659
2285,6.699999999999993
2286,9.213741106008975
2,2, 7, 2, 0,15, 0.00,60.00,Tuesday
7,29.76416666666667
770,23.066566937426804
2050,9677.929648259824
2053,0.7081121055514335
2054,0.2801690202113193
2055,0.4279430853401147
2056,11.808462789940644
2057,14.092358531191234
2063,28.022128727972246
2285,6.699999999999993
2286,8.998763140280094
2,2, 7, 2, 0,16, 0.00,60.00,Tuesday
7,30.854166666666669
770,23.050101211926515
2050,12415.11354185596
2053,0.9441494740685773
2054,0.3595129674060209
2055,0.5846365066625573
2056,11.869572663266013
2057,14.799522286869494
2063,27.03277084604368
2285,6.699999999999993
2286,9.64977352350498
2,2, 7, 2, 0,17, 0.00,60.00,Tuesday
7,30.84583333333334
770,23.045803855754167
2050,10463.82302345989
2053,0.7924111657361277
2054,0.3029984038183534
2055,0.48941276191777485
2056,11.879617721621975
2057,14.349056172765599
2063,27.048922984611335
2285,6.699999999999993
2286,9.186076303996707
2,2, 7, 2, 0,18, 0.00,60.00,Tuesday
7,30.59999999999997
770,22.933937301525434
2050,4759.047917633258
2053,0.354056052775717
2054,0.13778810570713338
2055,0.21626794706858352
2056,11.91683159791096
2057,13.039937549810649
2063,26.189823621081236
2285,6.699999999999993
2286,7.830539766065747
2,2, 7, 2, 0,19, 0.00,60.00,Tuesday
7,29.430833333333337
770,22.781737262997067
2050,0.0
2053,0.0
2054,0.0
2055,0.0
2056,11.994372524135575
2057,11.994372524135575
2063,26.118066426448974
2285,6.699999999999993
2286,6.699999999999993
2,2, 7, 2, 0,20, 0.00,60.00,Tuesday
7,26.927500000000003
770,22.86909987538392
2050,0.0
2053,0.0
2054,0.0
2055,0.0
2056,11.994372524135575
2057,11.994372524135575
2063,26.618926720209278
2285,6.699999999999993
2286,6.699999999999993
2,2, 7, 2, 0,21, 0.00,60.00,Tuesday
7,24.430833333333334
770,22.902094120395185
2050,2153.169358534886
2053,0.16859812036938905
2054,0.07554168445923272
2055,0.09305643591015626
2056,11.987151912507573
2057,12.49531043677965
2063,28.11022354630626
2285,6.938642564232664
2286,7.450341162189741
2,2, 7, 2, 0,22, 0.00,60.00,Tuesday
7,23.045833333333339
770,23.013320145705039
2050,8286.036043313168
2053,0.640672857403678
2054,0.3074738916799834
2055,0.3331989657236948
2056,11.94204085163499
2057,13.897563960635944
2063,16.006111924446207
2285,8.492184608845616
2286,10.461159848632262
2,2, 7, 2, 0,23, 0.00,60.00,Tuesday
7,22.494999999999999
770,22.946343452792914
2050,4087.906461749507
2053,0.3203364287018392
2054,0.16030335092918894
2055,0.16003307777265025
2056,11.981018151439942
2057,12.94578474954682
2063,13.803412622964265
2285,8.6971947501074
2286,9.668687492674195
2,2, 7, 2, 0,24, 0.00,60.00,Tuesday
7,21.640833333333334
770,22.965118770766268
2050,1699.913529206289
2053,0.13487849629551125
2054,0.0719724918420155
2055,0.06290600445349572
2056,11.994056949508814
2057,12.39524948982288
2063,11.878467712080699
2285,9.035077211902842
2286,9.439101843623986
End of Data
 Number of Records Written=        1056
