Program Version,EnergyPlus, Version 9.4.0-998c4b761e, YMD=2021.07.14 00:48
1,5,Environment Title[],Latitude[deg],Longitude[deg],Time Zone[],Elevation[m]
2,8,Day of Simulation[],Month[],Day of Month[],DST Indicator[1=yes 0=no],Hour[],StartMinute[],EndMinute[],DayType
3,5,Cumulative Day of Simulation[],Month[],Day of Month[],DST Indicator[1=yes 0=no],DayType  ! When Daily Meters Requested
4,2,Cumulative Days of Simulation[],Month[]  ! When Monthly Meters Requested
5,1,Cumulative Days of Simulation[] ! When Run Period Meters Requested
6,1,Calendar Year of Simulation[] ! When Annual Meters Requested
59,1,Electricity:Facility [J] !Hourly
1716,1,ElectricityNet:Facility [J] !Hourly
95,1,InteriorLights:Electricity [J] !Hourly
512,1,InteriorEquipment:Electricity [J] !Hourly
End of Data Dictionary
1,ATLANTA-HARTSFIELD.JACKSON.INTL.AP_GA_USA ANN HTG 99.6% CONDNS DB,  33.63, -84.43,  -5.00, 308.00
2,1, 1,21, 0, 1, 0.00,60.00,WinterDesignDay
59,120539101.71088098
95,0.0
512,0.0
1716,120539101.71088098
2,1, 1,21, 0, 2, 0.00,60.00,WinterDesignDay
59,120539101.71088098
95,0.0
512,0.0
1716,120539101.71088098
2,1, 1,21, 0, 3, 0.00,60.00,WinterDesignDay
59,120539101.71088098
95,0.0
512,0.0
1716,120539101.71088098
2,1, 1,21, 0, 4, 0.00,60.00,WinterDesignDay
59,120539101.71088098
95,0.0
512,0.0
1716,120539101.71088098
2,1, 1,21, 0, 5, 0.00,60.00,WinterDesignDay
59,120539101.71088098
95,0.0
512,0.0
1716,120539101.71088098
2,1, 1,21, 0, 6, 0.00,60.00,WinterDesignDay
59,120539101.71088098
95,0.0
512,0.0
1716,120539101.71088098
2,1, 1,21, 0, 7, 0.00,60.00,WinterDesignDay
59,130899361.71088098
95,0.0
512,0.0
1716,130899361.71088098
2,1, 1,21, 0, 8, 0.00,60.00,WinterDesignDay
59,126186511.71088098
95,0.0
512,0.0
1716,126186511.71088098
2,1, 1,21, 0, 9, 0.00,60.00,WinterDesignDay
59,112047961.71088098
95,0.0
512,0.0
1716,112047961.71088098
2,1, 1,21, 0,10, 0.00,60.00,WinterDesignDay
59,112047961.71088098
95,0.0
512,0.0
1716,112047961.71088098
2,1, 1,21, 0,11, 0.00,60.00,WinterDesignDay
59,112047961.71088098
95,0.0
512,0.0
1716,112047961.71088098
2,1, 1,21, 0,12, 0.00,60.00,WinterDesignDay
59,112047961.71088098
95,0.0
512,0.0
1716,112047961.71088098
2,1, 1,21, 0,13, 0.00,60.00,WinterDesignDay
59,112047961.71088098
95,0.0
512,0.0
1716,112047961.71088098
2,1, 1,21, 0,14, 0.00,60.00,WinterDesignDay
59,112047961.71088098
95,0.0
512,0.0
1716,112047961.71088098
2,1, 1,21, 0,15, 0.00,60.00,WinterDesignDay
59,112047961.71088098
95,0.0
512,0.0
1716,112047961.71088098
2,1, 1,21, 0,16, 0.00,60.00,WinterDesignDay
59,112047961.71088098
95,0.0
512,0.0
1716,112047961.71088098
2,1, 1,21, 0,17, 0.00,60.00,WinterDesignDay
59,112047961.71088098
95,0.0
512,0.0
1716,112047961.71088098
2,1, 1,21, 0,18, 0.00,60.00,WinterDesignDay
59,114561481.71088098
95,0.0
512,0.0
1716,114561481.71088098
2,1, 1,21, 0,19, 0.00,60.00,WinterDesignDay
59,130899361.71088098
95,0.0
512,0.0
1716,130899361.71088098
2,1, 1,21, 0,20, 0.00,60.00,WinterDesignDay
59,123084481.71088098
95,0.0
512,0.0
1716,123084481.71088098
2,1, 1,21, 0,21, 0.00,60.00,WinterDesignDay
59,123084481.71088098
95,0.0
512,0.0
1716,123084481.71088098
2,1, 1,21, 0,22, 0.00,60.00,WinterDesignDay
59,123084481.71088098
95,0.0
512,0.0
1716,123084481.71088098
2,1, 1,21, 0,23, 0.00,60.00,WinterDesignDay
59,123084481.71088098
95,0.0
512,0.0
1716,123084481.71088098
2,1, 1,21, 0,24, 0.00,60.00,WinterDesignDay
59,123084481.71088098
95,0.0
512,0.0
1716,123084481.71088098
1,ATLANTA-HARTSFIELD.JACKSON.INTL.AP_GA_USA ANN CLG .4% CONDNS DB=>MWB,  33.63, -84.43,  -5.00, 308.00
2,1, 7,21, 0, 1, 0.00,60.00,SummerDesignDay
59,517995603.06444016
95,152517470.7542746
512,224813060.55296675
1716,517995603.0644399
2,1, 7,21, 0, 2, 0.00,60.00,SummerDesignDay
59,523430793.4189539
95,152517470.7542746
512,224813060.55296675
1716,523430793.4189538
2,1, 7,21, 0, 3, 0.00,60.00,SummerDesignDay
59,523730793.4189539
95,152517470.7542746
512,224813060.55296675
1716,523730793.4189538
2,1, 7,21, 0, 4, 0.00,60.00,SummerDesignDay
59,523802793.4189539
95,152517470.7542746
512,224813060.55296675
1716,523802793.4189538
2,1, 7,21, 0, 5, 0.00,60.00,SummerDesignDay
59,523922793.4189539
95,152517470.7542746
512,224813060.55296675
1716,523922793.4189538
2,1, 7,21, 0, 6, 0.00,60.00,SummerDesignDay
59,521844389.1773547
95,152399851.51267544
512,224813060.55296675
1716,521844389.1773546
2,1, 7,21, 0, 7, 0.00,60.00,SummerDesignDay
59,486289435.22289237
95,129723979.24717574
512,224813060.55296675
1716,486289435.22289249
2,1, 7,21, 0, 8, 0.00,60.00,SummerDesignDay
59,481080918.5421628
95,120394417.54972403
512,224813060.55296675
1716,481080918.5421628
2,1, 7,21, 0, 9, 0.00,60.00,SummerDesignDay
59,465695188.0024651
95,119991185.40467149
512,224813060.55296675
1716,465695188.0024651
2,1, 7,21, 0,10, 0.00,60.00,SummerDesignDay
59,465695188.0024651
95,119991185.40467149
512,224813060.55296675
1716,465695188.0024651
2,1, 7,21, 0,11, 0.00,60.00,SummerDesignDay
59,465719188.0024651
95,119991185.40467149
512,224813060.55296675
1716,465719188.0024651
2,1, 7,21, 0,12, 0.00,60.00,SummerDesignDay
59,465695188.0024651
95,119991185.40467149
512,224813060.55296675
1716,465695188.0024651
2,1, 7,21, 0,13, 0.00,60.00,SummerDesignDay
59,465695188.0024651
95,119991185.40467149
512,224813060.55296675
1716,465695188.0024651
2,1, 7,21, 0,14, 0.00,60.00,SummerDesignDay
59,465779188.0024651
95,119991185.40467149
512,224813060.55296675
1716,465779188.0024651
2,1, 7,21, 0,15, 0.00,60.00,SummerDesignDay
59,465797188.0024651
95,119991185.40467149
512,224813060.55296675
1716,465797188.0024651
2,1, 7,21, 0,16, 0.00,60.00,SummerDesignDay
59,465725188.0024651
95,119991185.40467149
512,224813060.55296675
1716,465725188.0024651
2,1, 7,21, 0,17, 0.00,60.00,SummerDesignDay
59,465797188.0024651
95,119991185.40467149
512,224813060.55296675
1716,465797188.0024651
2,1, 7,21, 0,18, 0.00,60.00,SummerDesignDay
59,465759443.77086707
95,120025441.17307365
512,224813060.55296675
1716,465759443.77086707
2,1, 7,21, 0,19, 0.00,60.00,SummerDesignDay
59,468243300.1586291
95,122515297.56083551
512,224813060.55296675
1716,468243300.1586291
2,1, 7,21, 0,20, 0.00,60.00,SummerDesignDay
59,495896456.40827837
95,146697555.81048496
512,224813060.55296675
1716,495896456.4082784
2,1, 7,21, 0,21, 0.00,60.00,SummerDesignDay
59,509257993.3520684
95,152517470.7542746
512,224813060.55296675
1716,509257993.3520684
2,1, 7,21, 0,22, 0.00,60.00,SummerDesignDay
59,509257993.3520684
95,152517470.7542746
512,224813060.55296675
1716,509257993.3520684
2,1, 7,21, 0,23, 0.00,60.00,SummerDesignDay
59,509257993.3520684
95,152517470.7542746
512,224813060.55296675
1716,509257993.3520684
2,1, 7,21, 0,24, 0.00,60.00,SummerDesignDay
59,510072602.3554127
95,152517470.7542746
512,224813060.55296675
1716,510072602.3554127
1,RUNPERIOD 1,  33.63, -84.43,  -5.00, 308.00
2,1, 7, 1, 0, 1, 0.00,60.00,Monday
59,60650215.539524439
95,7625873.53771374
512,44533202.00181081
1716,60650215.539524439
2,1, 7, 1, 0, 2, 0.00,60.00,Monday
59,70070058.67515804
95,7625873.53771374
512,44533202.00181081
1716,70070058.67515804
2,1, 7, 1, 0, 3, 0.00,60.00,Monday
59,74066308.41647744
95,7625873.53771374
512,44533202.00181081
1716,74066308.41647744
2,1, 7, 1, 0, 4, 0.00,60.00,Monday
59,72125183.54581768
95,7625873.53771374
512,44533202.00181081
1716,72125183.54581766
2,1, 7, 1, 0, 5, 0.00,60.00,Monday
59,75565652.06947221
95,7625873.53771374
512,44533202.00181081
1716,75565652.06947221
2,1, 7, 1, 0, 6, 0.00,60.00,Monday
59,83800854.19283252
95,14835019.70208967
512,44533202.00181081
1716,83800854.19283252
2,1, 7, 1, 0, 7, 0.00,60.00,Monday
59,98566045.580052
95,10806640.641844433
512,55180531.87831209
1716,98566045.580052
2,1, 7, 1, 0, 8, 0.00,60.00,Monday
59,262315668.81390334
95,31270023.132256438
512,95796493.41677362
1716,262315668.81390334
2,1, 7, 1, 0, 9, 0.00,60.00,Monday
59,433598964.3870043
95,93124323.85391505
512,204227663.7591696
1716,433598964.3870043
2,1, 7, 1, 0,10, 0.00,60.00,Monday
59,388071072.5150538
95,93124323.85391505
512,174055806.61631225
1716,388071072.5150538
2,1, 7, 1, 0,11, 0.00,60.00,Monday
59,381108336.25131729
95,93124323.85391505
512,167093070.3525762
1716,381108336.2513173
2,1, 7, 1, 0,12, 0.00,60.00,Monday
59,388071072.5150538
95,93124323.85391505
512,174055806.61631225
1716,388071072.5150538
2,1, 7, 1, 0,13, 0.00,60.00,Monday
59,391994780.2048159
95,93124323.85391505
512,177667514.30607493
1716,391994780.2048159
2,1, 7, 1, 0,14, 0.00,60.00,Monday
59,393885352.73483368
95,93124323.85391505
512,179858086.83609239
1716,393885352.73483368
2,1, 7, 1, 0,15, 0.00,60.00,Monday
59,381108336.25131729
95,93124323.85391505
512,167093070.3525762
1716,381108336.2513173
2,1, 7, 1, 0,16, 0.00,60.00,Monday
59,381118003.7652943
95,93133991.36789204
512,167093070.3525762
1716,381118003.7652944
2,1, 7, 1, 0,17, 0.00,60.00,Monday
59,392732686.79048076
95,94304569.99747429
512,177537174.74818046
1716,392732686.79048076
2,1, 7, 1, 0,18, 0.00,60.00,Monday
59,314081948.26431366
95,52897696.51907077
512,140923939.57316477
1716,314081948.26431366
2,1, 7, 1, 0,19, 0.00,60.00,Monday
59,233977199.4221605
95,33000511.074774714
512,69106004.40578471
1716,233977199.42216037
2,1, 7, 1, 0,20, 0.00,60.00,Monday
59,238534114.61718605
95,38899677.792273219
512,59822356.054136309
1716,238534114.617186
2,1, 7, 1, 0,21, 0.00,60.00,Monday
59,234763654.72064499
95,26303943.895732464
512,59822356.054136309
1716,234763654.72064499
2,1, 7, 1, 0,22, 0.00,60.00,Monday
59,112174437.16209467
95,26303943.895732464
512,55180531.87831209
1716,112174437.16209467
2,1, 7, 1, 0,23, 0.00,60.00,Monday
59,109331896.88607387
95,13151971.947866232
512,55180531.87831209
1716,109331896.88607377
2,1, 7, 1, 0,24, 0.00,60.00,Monday
59,94111630.21183685
95,6575985.973933116
512,55180531.87831209
1716,94111630.21183686
2,2, 7, 2, 0, 1, 0.00,60.00,Tuesday
59,60650215.539524439
95,7625873.53771374
512,44533202.00181081
1716,60650215.539524439
2,2, 7, 2, 0, 2, 0.00,60.00,Tuesday
59,69574277.45749311
95,7625873.53771374
512,44533202.00181081
1716,69574277.45749311
2,2, 7, 2, 0, 3, 0.00,60.00,Tuesday
59,71115621.11048788
95,7625873.53771374
512,44533202.00181081
1716,71115621.11048788
2,2, 7, 2, 0, 4, 0.00,60.00,Tuesday
59,72107183.54581766
95,7625873.53771374
512,44533202.00181081
1716,72107183.54581766
2,2, 7, 2, 0, 5, 0.00,60.00,Tuesday
59,78498339.37546167
95,7625873.53771374
512,44533202.00181081
1716,78498339.37546167
2,2, 7, 2, 0, 6, 0.00,60.00,Tuesday
59,79175769.38952112
95,15251747.07542748
512,44533202.00181081
1716,79175769.38952106
2,2, 7, 2, 0, 7, 0.00,60.00,Tuesday
59,97477753.5877004
95,12100348.64949286
512,55180531.87831209
1716,97477753.5877004
2,2, 7, 2, 0, 8, 0.00,60.00,Tuesday
59,262079677.65562756
95,31140584.46337594
512,95796493.41677362
1716,262079677.65562756
2,2, 7, 2, 0, 9, 0.00,60.00,Tuesday
59,434745109.7247967
95,93124323.85391505
512,204227663.7591696
1716,434745109.7247967
2,2, 7, 2, 0,10, 0.00,60.00,Tuesday
59,404375252.5819385
95,93124323.85391505
512,174055806.61631225
1716,404375252.5819397
2,2, 7, 2, 0,11, 0.00,60.00,Tuesday
59,396857443.6493069
95,93124323.85391505
512,167093070.3525762
1716,396857443.6493069
2,2, 7, 2, 0,12, 0.00,60.00,Tuesday
59,388071072.5150538
95,93124323.85391505
512,174055806.61631225
1716,388071072.5150538
2,2, 7, 2, 0,13, 0.00,60.00,Tuesday
59,391802780.2048159
95,93124323.85391505
512,177667514.30607493
1716,391802780.2048159
2,2, 7, 2, 0,14, 0.00,60.00,Tuesday
59,393879352.73483368
95,93124323.85391505
512,179858086.83609239
1716,393879352.73483368
2,2, 7, 2, 0,15, 0.00,60.00,Tuesday
59,381108336.25131729
95,93124323.85391505
512,167093070.3525762
1716,381108336.2513173
2,2, 7, 2, 0,16, 0.00,60.00,Tuesday
59,381108336.25131729
95,93124323.85391505
512,167093070.3525762
1716,381108336.2513173
2,2, 7, 2, 0,17, 0.00,60.00,Tuesday
59,391552440.64692136
95,93124323.85391505
512,177537174.74818046
1716,391552440.6469214
2,2, 7, 2, 0,18, 0.00,60.00,Tuesday
59,313666044.19513437
95,51749162.5771431
512,140923939.57316477
1716,313666044.19513437
2,2, 7, 2, 0,19, 0.00,60.00,Tuesday
59,222929781.9857048
95,31563153.862853268
512,69106004.40578471
1716,222929781.9857048
2,2, 7, 2, 0,20, 0.00,60.00,Tuesday
59,237178374.32040376
95,37421650.15455603
512,59822356.054136309
1716,237178374.32040376
2,2, 7, 2, 0,21, 0.00,60.00,Tuesday
59,234975942.06158088
95,26303943.895732464
512,59822356.054136309
1716,234975942.06158088
2,2, 7, 2, 0,22, 0.00,60.00,Tuesday
59,121560746.6081406
95,26303943.895732464
512,55180531.87831209
1716,121560746.60814059
2,2, 7, 2, 0,23, 0.00,60.00,Tuesday
59,110495896.88607387
95,13151971.947866232
512,55180531.87831209
1716,110495896.88607382
2,2, 7, 2, 0,24, 0.00,60.00,Tuesday
59,102044129.69447568
95,6575985.973933116
512,55180531.87831209
1716,102044129.6944757
End of Data
 Number of Records Written=         384
