Program Version,EnergyPlus, Version 9.5.0-de239b2e5f, YMD=2021.07.23 13:07
1,5,Environment Title[],Latitude[deg],Longitude[deg],Time Zone[],Elevation[m]
2,8,Day of Simulation[],Month[],Day of Month[],DST Indicator[1=yes 0=no],Hour[],StartMinute[],EndMinute[],DayType
3,5,Cumulative Day of Simulation[],Month[],Day of Month[],DST Indicator[1=yes 0=no],DayType  ! When Daily Meters Requested
4,2,Cumulative Days of Simulation[],Month[]  ! When Monthly Meters Requested
5,1,Cumulative Days of Simulation[] ! When Run Period Meters Requested
6,1,Calendar Year of Simulation[] ! When Annual Meters Requested
9,1,Electricity:Facility [J] !Hourly
1508,1,ElectricityNet:Facility [J] !Hourly
45,1,InteriorLights:Electricity [J] !Hourly
432,1,InteriorEquipment:Electricity [J] !Hourly
End of Data Dictionary
1,ATLANTA-HARTSFIELD.JACKSON.INTL.AP_GA_USA ANN HTG 99.6% CONDNS DB,  33.63, -84.43,  -5.00, 308.00
2,1, 1,21, 0, 1, 0.00,60.00,WinterDesignDay
9,114085554.49409275
45,0.0
432,0.0
1508,114085554.49409275
2,1, 1,21, 0, 2, 0.00,60.00,WinterDesignDay
9,114078354.49409275
45,0.0
432,0.0
1508,114078354.49409275
2,1, 1,21, 0, 3, 0.00,60.00,WinterDesignDay
9,114092754.49409275
45,0.0
432,0.0
1508,114092754.49409275
2,1, 1,21, 0, 4, 0.00,60.00,WinterDesignDay
9,114078354.49409275
45,0.0
432,0.0
1508,114078354.49409275
2,1, 1,21, 0, 5, 0.00,60.00,WinterDesignDay
9,114085554.49409275
45,0.0
432,0.0
1508,114085554.49409275
2,1, 1,21, 0, 6, 0.00,60.00,WinterDesignDay
9,114092754.49409275
45,0.0
432,0.0
1508,114092754.49409275
2,1, 1,21, 0, 7, 0.00,60.00,WinterDesignDay
9,124345014.49409275
45,0.0
432,0.0
1508,124345014.49409272
2,1, 1,21, 0, 8, 0.00,60.00,WinterDesignDay
9,119653764.49409275
45,0.0
432,0.0
1508,119653764.49409272
2,1, 1,21, 0, 9, 0.00,60.00,WinterDesignDay
9,105529614.49409274
45,0.0
432,0.0
1508,105529614.49409274
2,1, 1,21, 0,10, 0.00,60.00,WinterDesignDay
9,105529614.49409274
45,0.0
432,0.0
1508,105529614.49409274
2,1, 1,21, 0,11, 0.00,60.00,WinterDesignDay
9,105529614.49409274
45,0.0
432,0.0
1508,105529614.49409274
2,1, 1,21, 0,12, 0.00,60.00,WinterDesignDay
9,105529614.49409274
45,0.0
432,0.0
1508,105529614.49409274
2,1, 1,21, 0,13, 0.00,60.00,WinterDesignDay
9,105536814.49409274
45,0.0
432,0.0
1508,105536814.49409274
2,1, 1,21, 0,14, 0.00,60.00,WinterDesignDay
9,105536814.49409274
45,0.0
432,0.0
1508,105536814.49409274
2,1, 1,21, 0,15, 0.00,60.00,WinterDesignDay
9,105529614.49409274
45,0.0
432,0.0
1508,105529614.49409274
2,1, 1,21, 0,16, 0.00,60.00,WinterDesignDay
9,105529614.49409274
45,0.0
432,0.0
1508,105529614.49409274
2,1, 1,21, 0,17, 0.00,60.00,WinterDesignDay
9,105529614.49409274
45,0.0
432,0.0
1508,105529614.49409274
2,1, 1,21, 0,18, 0.00,60.00,WinterDesignDay
9,108043134.49409274
45,0.0
432,0.0
1508,108043134.49409274
2,1, 1,21, 0,19, 0.00,60.00,WinterDesignDay
9,124510614.49409275
45,0.0
432,0.0
1508,124510614.49409272
2,1, 1,21, 0,20, 0.00,60.00,WinterDesignDay
9,116630934.49409275
45,0.0
432,0.0
1508,116630934.49409275
2,1, 1,21, 0,21, 0.00,60.00,WinterDesignDay
9,116638134.49409275
45,0.0
432,0.0
1508,116638134.49409275
2,1, 1,21, 0,22, 0.00,60.00,WinterDesignDay
9,116623734.49409275
45,0.0
432,0.0
1508,116623734.49409275
2,1, 1,21, 0,23, 0.00,60.00,WinterDesignDay
9,116638134.49409275
45,0.0
432,0.0
1508,116638134.49409275
2,1, 1,21, 0,24, 0.00,60.00,WinterDesignDay
9,116638134.49409275
45,0.0
432,0.0
1508,116638134.49409275
1,ATLANTA-HARTSFIELD.JACKSON.INTL.AP_GA_USA ANN CLG .4% CONDNS DB=>MWB,  33.63, -84.43,  -5.00, 308.00
2,1, 7,21, 0, 1, 0.00,60.00,SummerDesignDay
9,518515701.7582477
45,152517470.7542746
432,224813060.55296675
1508,518515701.7582477
2,1, 7,21, 0, 2, 0.00,60.00,SummerDesignDay
9,518611701.7582477
45,152517470.7542746
432,224813060.55296675
1508,518611701.7582477
2,1, 7,21, 0, 3, 0.00,60.00,SummerDesignDay
9,518671701.7582477
45,152517470.7542746
432,224813060.55296675
1508,518671701.7582477
2,1, 7,21, 0, 4, 0.00,60.00,SummerDesignDay
9,518779701.7582477
45,152517470.7542746
432,224813060.55296675
1508,518779701.7582477
2,1, 7,21, 0, 5, 0.00,60.00,SummerDesignDay
9,518809701.7582477
45,152517470.7542746
432,224813060.55296675
1508,518809701.7582477
2,1, 7,21, 0, 6, 0.00,60.00,SummerDesignDay
9,516641297.51664856
45,152399851.51267544
432,224813060.55296675
1508,516641297.51664856
2,1, 7,21, 0, 7, 0.00,60.00,SummerDesignDay
9,486100260.6839891
45,129457169.68001552
432,224813060.55296675
1508,486100260.6839891
2,1, 7,21, 0, 8, 0.00,60.00,SummerDesignDay
9,476983399.0868622
45,120340308.08288898
432,224813060.55296675
1508,476983399.0868622
2,1, 7,21, 0, 9, 0.00,60.00,SummerDesignDay
9,468274469.2982909
45,119991185.40467149
432,224813060.55296675
1508,468274469.2982909
2,1, 7,21, 0,10, 0.00,60.00,SummerDesignDay
9,459868736.45741429
45,119991185.40467149
432,224813060.55296675
1508,459868736.45741429
2,1, 7,21, 0,11, 0.00,60.00,SummerDesignDay
9,459868736.45741429
45,119991185.40467149
432,224813060.55296675
1508,459868736.45741429
2,1, 7,21, 0,12, 0.00,60.00,SummerDesignDay
9,459868736.45741429
45,119991185.40467149
432,224813060.55296675
1508,459868736.45741429
2,1, 7,21, 0,13, 0.00,60.00,SummerDesignDay
9,459868736.45741429
45,119991185.40467149
432,224813060.55296675
1508,459868736.45741429
2,1, 7,21, 0,14, 0.00,60.00,SummerDesignDay
9,459868736.45741429
45,119991185.40467149
432,224813060.55296675
1508,459868736.45741429
2,1, 7,21, 0,15, 0.00,60.00,SummerDesignDay
9,459892736.45741429
45,119991185.40467149
432,224813060.55296675
1508,459892736.45741429
2,1, 7,21, 0,16, 0.00,60.00,SummerDesignDay
9,459868736.45741429
45,119991185.40467149
432,224813060.55296675
1508,459868736.45741429
2,1, 7,21, 0,17, 0.00,60.00,SummerDesignDay
9,459892736.45741429
45,119991185.40467149
432,224813060.55296675
1508,459892736.45741429
2,1, 7,21, 0,18, 0.00,60.00,SummerDesignDay
9,459902992.2258166
45,120025441.17307365
432,224813060.55296675
1508,459902992.2258166
2,1, 7,21, 0,19, 0.00,60.00,SummerDesignDay
9,462145697.58519998
45,122268146.53245703
432,224813060.55296675
1508,462145697.5852
2,1, 7,21, 0,20, 0.00,60.00,SummerDesignDay
9,489052693.1429319
45,146615183.8883431
432,224813060.55296675
1508,489052693.1429319
2,1, 7,21, 0,21, 0.00,60.00,SummerDesignDay
9,503431541.807017
45,152517470.7542746
432,224813060.55296675
1508,503431541.807017
2,1, 7,21, 0,22, 0.00,60.00,SummerDesignDay
9,503431541.807017
45,152517470.7542746
432,224813060.55296675
1508,503431541.807017
2,1, 7,21, 0,23, 0.00,60.00,SummerDesignDay
9,519811356.0923939
45,152517470.7542746
432,224813060.55296675
1508,519811356.0923938
2,1, 7,21, 0,24, 0.00,60.00,SummerDesignDay
9,520839081.7582477
45,152517470.7542746
432,224813060.55296675
1508,520839081.7582477
1,RUNPERIOD 1,  33.63, -84.43,  -5.00, 308.00
2,1, 7,21, 0, 1, 0.00,60.00,Monday
9,91096195.62447974
45,7625873.53771374
432,44533202.00181081
1508,91096195.62447974
2,1, 7,21, 0, 2, 0.00,60.00,Monday
9,89760159.75252109
45,7625873.53771374
432,44533202.00181081
1508,89760159.75252109
2,1, 7,21, 0, 3, 0.00,60.00,Monday
9,85832016.26468645
45,7625873.53771374
432,44533202.00181081
1508,85832016.26468645
2,1, 7,21, 0, 4, 0.00,60.00,Monday
9,82193890.71283102
45,7625873.53771374
432,44533202.00181081
1508,82193890.71283102
2,1, 7,21, 0, 5, 0.00,60.00,Monday
9,80139818.9689137
45,7625873.53771374
432,44533202.00181081
1508,80139818.9689137
2,1, 7,21, 0, 6, 0.00,60.00,Monday
9,87731973.80306797
45,15074147.257612158
432,44533202.00181081
1508,87731973.80306795
2,1, 7,21, 0, 7, 0.00,60.00,Monday
9,100302774.26633884
45,11042226.431112895
432,55180531.87831209
1508,100302774.26633884
2,1, 7,21, 0, 8, 0.00,60.00,Monday
9,257113525.5147881
45,31131081.30798453
432,95796493.41677362
1508,257113525.5147881
2,1, 7,21, 0, 9, 0.00,60.00,Monday
9,427855352.6000829
45,93124323.85391505
432,204227663.7591696
1508,427855352.60008278
2,1, 7,21, 0,10, 0.00,60.00,Monday
9,382244620.97000339
45,93124323.85391505
432,174055806.61631225
1508,382244620.97000339
2,1, 7,21, 0,11, 0.00,60.00,Monday
9,375281884.70626738
45,93124323.85391505
432,167093070.3525762
1508,375281884.70626738
2,1, 7,21, 0,12, 0.00,60.00,Monday
9,382244620.97000339
45,93124323.85391505
432,174055806.61631225
1508,382244620.97000339
2,1, 7,21, 0,13, 0.00,60.00,Monday
9,385856328.65976598
45,93124323.85391505
432,177667514.30607493
1508,385856328.65976598
2,1, 7,21, 0,14, 0.00,60.00,Monday
9,388046901.18978378
45,93124323.85391505
432,179858086.83609239
1508,388046901.18978378
2,1, 7,21, 0,15, 0.00,60.00,Monday
9,375281884.70626738
45,93124323.85391505
432,167093070.3525762
1508,375281884.70626738
2,1, 7,21, 0,16, 0.00,60.00,Monday
9,375281884.70626738
45,93124323.85391505
432,167093070.3525762
1508,375281884.70626738
2,1, 7,21, 0,17, 0.00,60.00,Monday
9,385725989.1018714
45,93124323.85391505
432,177537174.74818046
1508,385725989.1018714
2,1, 7,21, 0,18, 0.00,60.00,Monday
9,307771160.4069488
45,51782730.33400772
432,140923939.57316477
1508,307771160.4069488
2,1, 7,21, 0,19, 0.00,60.00,Monday
9,223890796.1491735
45,31744256.93385141
432,69106004.40578471
1508,223890796.14917357
2,1, 7,21, 0,20, 0.00,60.00,Monday
9,232026627.05136208
45,37730282.34437338
432,59822356.054136309
1508,232026627.05136208
2,1, 7,21, 0,21, 0.00,60.00,Monday
9,230078850.4008754
45,26303943.895732464
432,59822356.054136309
1508,230078850.4008754
2,1, 7,21, 0,22, 0.00,60.00,Monday
9,120724540.10103974
45,26303943.895732464
432,55180531.87831209
1508,120724540.10103974
2,1, 7,21, 0,23, 0.00,60.00,Monday
9,113365039.78309216
45,13151971.947866232
432,55180531.87831209
1508,113365039.78309216
2,1, 7,21, 0,24, 0.00,60.00,Monday
9,105709053.80915903
45,6575985.973933116
432,55180531.87831209
1508,105709053.80915903
2,2, 7,22, 0, 1, 0.00,60.00,Tuesday
9,92300231.49643843
45,7625873.53771374
432,44533202.00181081
1508,92300231.49643843
2,2, 7,22, 0, 2, 0.00,60.00,Tuesday
9,92138231.49643843
45,7625873.53771374
432,44533202.00181081
1508,92138231.49643842
2,2, 7,22, 0, 3, 0.00,60.00,Tuesday
9,92018231.49643843
45,7625873.53771374
432,44533202.00181081
1508,92018231.49643842
2,2, 7,22, 0, 4, 0.00,60.00,Tuesday
9,79717801.03293437
45,7625873.53771374
432,44533202.00181081
1508,79717801.03293437
2,2, 7,22, 0, 5, 0.00,60.00,Tuesday
9,74657621.67314108
45,7625873.53771374
432,44533202.00181081
1508,74657621.67314108
2,2, 7,22, 0, 6, 0.00,60.00,Tuesday
9,86853141.68197425
45,15056426.378815612
432,44533202.00181081
1508,86853141.68197425
2,2, 7,22, 0, 7, 0.00,60.00,Tuesday
9,100235273.89495217
45,11022726.0597262
432,55180531.87831209
1508,100235273.89495217
2,2, 7,22, 0, 8, 0.00,60.00,Tuesday
9,256909414.47071518
45,31156695.92976554
432,95796493.41677362
1508,256909414.47071518
2,2, 7,22, 0, 9, 0.00,60.00,Tuesday
9,429230018.0640903
45,93124323.85391505
432,204227663.7591696
1508,429230018.0640903
2,2, 7,22, 0,10, 0.00,60.00,Tuesday
9,388838036.9504955
45,93124323.85391505
432,174055806.61631225
1508,388838036.9504955
2,2, 7,22, 0,11, 0.00,60.00,Tuesday
9,375281884.70626738
45,93124323.85391505
432,167093070.3525762
1508,375281884.70626738
2,2, 7,22, 0,12, 0.00,60.00,Tuesday
9,382244620.97000339
45,93124323.85391505
432,174055806.61631225
1508,382244620.97000339
2,2, 7,22, 0,13, 0.00,60.00,Tuesday
9,385856328.65976598
45,93124323.85391505
432,177667514.30607493
1508,385856328.65976598
2,2, 7,22, 0,14, 0.00,60.00,Tuesday
9,388046901.18978378
45,93124323.85391505
432,179858086.83609239
1508,388046901.18978378
2,2, 7,22, 0,15, 0.00,60.00,Tuesday
9,375281884.70626738
45,93124323.85391505
432,167093070.3525762
1508,375281884.70626738
2,2, 7,22, 0,16, 0.00,60.00,Tuesday
9,375281884.70626738
45,93124323.85391505
432,167093070.3525762
1508,375281884.70626738
2,2, 7,22, 0,17, 0.00,60.00,Tuesday
9,385880669.3255041
45,93279004.07754724
432,177537174.74818046
1508,385880669.3255041
2,2, 7,22, 0,18, 0.00,60.00,Tuesday
9,313715740.6102592
45,53337699.883656579
432,140923939.57316477
1508,313715740.6102592
2,2, 7,22, 0,19, 0.00,60.00,Tuesday
9,236520130.77748508
45,34840095.92069393
432,69106004.40578471
1508,236520130.77748508
2,2, 7,22, 0,20, 0.00,60.00,Tuesday
9,235470232.4077134
45,38990947.902570959
432,59822356.054136309
1508,235470232.40771345
2,2, 7,22, 0,21, 0.00,60.00,Tuesday
9,230420850.4008754
45,26303943.895732464
432,59822356.054136309
1508,230420850.4008754
2,2, 7,22, 0,22, 0.00,60.00,Tuesday
9,112256306.93330838
45,26303943.895732464
432,55180531.87831209
1508,112256306.93330838
2,2, 7,22, 0,23, 0.00,60.00,Tuesday
9,101604716.93546416
45,13151971.947866232
432,55180531.87831209
1508,101604716.93546416
2,2, 7,22, 0,24, 0.00,60.00,Tuesday
9,99414892.38534513
45,6575985.973933116
432,55180531.87831209
1508,99414892.38534513
End of Data
 Number of Records Written=         384
