Program Version,EnergyPlus, Version 9.5.0-de239b2e5f, YMD=2021.07.23 13:07
1,5,Environment Title[],Latitude[deg],Longitude[deg],Time Zone[],Elevation[m]
2,8,Day of Simulation[],Month[],Day of Month[],DST Indicator[1=yes 0=no],Hour[],StartMinute[],EndMinute[],DayType
3,5,Cumulative Day of Simulation[],Month[],Day of Month[],DST Indicator[1=yes 0=no],DayType  ! When Daily Report Variables Requested
4,2,Cumulative Days of Simulation[],Month[]  ! When Monthly Report Variables Requested
5,1,Cumulative Days of Simulation[] ! When Run Period Report Variables Requested
6,1,Calendar Year of Simulation[] ! When Annual Report Variables Requested
651,1,PERIMETER_BOT_ZN_1,Zone Mean Air Temperature [C] !Hourly
1716,1,PERI1_TOP_LOTEMP,Zone Radiant HVAC Cooling Rate [W] !Hourly
End of Data Dictionary
1,ATLANTA-HARTSFIELD.JACKSON.INTL.AP_GA_USA ANN HTG 99.6% CONDNS DB,  33.63, -84.43,  -5.00, 308.00
2,1, 1,21, 0, 1, 0.00,60.00,WinterDesignDay
651,16.010609115123445
1716,0.0
2,1, 1,21, 0, 2, 0.00,60.00,WinterDesignDay
651,16.01273822320849
1716,0.0
2,1, 1,21, 0, 3, 0.00,60.00,WinterDesignDay
651,16.009754289396605
1716,0.0
2,1, 1,21, 0, 4, 0.00,60.00,WinterDesignDay
651,16.012345712258907
1716,0.0
2,1, 1,21, 0, 5, 0.00,60.00,WinterDesignDay
651,16.010653707673993
1716,0.0
2,1, 1,21, 0, 6, 0.00,60.00,WinterDesignDay
651,16.010425968216894
1716,0.0
2,1, 1,21, 0, 7, 0.00,60.00,WinterDesignDay
651,16.073699118345567
1716,0.0
2,1, 1,21, 0, 8, 0.00,60.00,WinterDesignDay
651,16.028001835787124
1716,0.0
2,1, 1,21, 0, 9, 0.00,60.00,WinterDesignDay
651,16.02311659245585
1716,0.0
2,1, 1,21, 0,10, 0.00,60.00,WinterDesignDay
651,16.022960354199978
1716,0.0
2,1, 1,21, 0,11, 0.00,60.00,WinterDesignDay
651,16.0212300000227
1716,0.0
2,1, 1,21, 0,12, 0.00,60.00,WinterDesignDay
651,16.02219149250126
1716,0.0
2,1, 1,21, 0,13, 0.00,60.00,WinterDesignDay
651,16.02128655571646
1716,0.0
2,1, 1,21, 0,14, 0.00,60.00,WinterDesignDay
651,16.021937386698668
1716,0.0
2,1, 1,21, 0,15, 0.00,60.00,WinterDesignDay
651,16.02298533338868
1716,0.0
2,1, 1,21, 0,16, 0.00,60.00,WinterDesignDay
651,16.023022653318649
1716,0.0
2,1, 1,21, 0,17, 0.00,60.00,WinterDesignDay
651,16.02215085413572
1716,0.0
2,1, 1,21, 0,18, 0.00,60.00,WinterDesignDay
651,16.021691027472888
1716,0.0
2,1, 1,21, 0,19, 0.00,60.00,WinterDesignDay
651,16.000237940764867
1716,0.0
2,1, 1,21, 0,20, 0.00,60.00,WinterDesignDay
651,16.013380470832599
1716,0.0
2,1, 1,21, 0,21, 0.00,60.00,WinterDesignDay
651,16.01318963163228
1716,0.0
2,1, 1,21, 0,22, 0.00,60.00,WinterDesignDay
651,16.012820823247055
1716,0.0
2,1, 1,21, 0,23, 0.00,60.00,WinterDesignDay
651,16.010536285360084
1716,0.0
2,1, 1,21, 0,24, 0.00,60.00,WinterDesignDay
651,16.010203303875249
1716,0.0
1,ATLANTA-HARTSFIELD.JACKSON.INTL.AP_GA_USA ANN CLG .4% CONDNS DB=>MWB,  33.63, -84.43,  -5.00, 308.00
2,1, 7,21, 0, 1, 0.00,60.00,SummerDesignDay
651,20.810748572728778
1716,10799.436506820239
2,1, 7,21, 0, 2, 0.00,60.00,SummerDesignDay
651,20.533626360173995
1716,9690.376329263727
2,1, 7,21, 0, 3, 0.00,60.00,SummerDesignDay
651,20.223843611776375
1716,11895.268972737458
2,1, 7,21, 0, 4, 0.00,60.00,SummerDesignDay
651,20.17919133051797
1716,5574.99037097697
2,1, 7,21, 0, 5, 0.00,60.00,SummerDesignDay
651,20.3213401165191
1716,7090.04764278811
2,1, 7,21, 0, 6, 0.00,60.00,SummerDesignDay
651,20.070010089685689
1716,13397.278372121555
2,1, 7,21, 0, 7, 0.00,60.00,SummerDesignDay
651,20.152399487419819
1716,10807.926891381825
2,1, 7,21, 0, 8, 0.00,60.00,SummerDesignDay
651,20.24250359429924
1716,12074.030963084322
2,1, 7,21, 0, 9, 0.00,60.00,SummerDesignDay
651,21.01990667214841
1716,0.0
2,1, 7,21, 0,10, 0.00,60.00,SummerDesignDay
651,21.787412087114224
1716,13629.001320985648
2,1, 7,21, 0,11, 0.00,60.00,SummerDesignDay
651,22.211833684042018
1716,13452.849014642152
2,1, 7,21, 0,12, 0.00,60.00,SummerDesignDay
651,22.820566462448686
1716,13478.498482738492
2,1, 7,21, 0,13, 0.00,60.00,SummerDesignDay
651,23.393891532857468
1716,13493.421031203192
2,1, 7,21, 0,14, 0.00,60.00,SummerDesignDay
651,23.792846327994139
1716,13497.772908720928
2,1, 7,21, 0,15, 0.00,60.00,SummerDesignDay
651,23.92916138881394
1716,13493.565387845065
2,1, 7,21, 0,16, 0.00,60.00,SummerDesignDay
651,23.759954249964776
1716,13484.289413299575
2,1, 7,21, 0,17, 0.00,60.00,SummerDesignDay
651,23.36549192722886
1716,13475.176200630893
2,1, 7,21, 0,18, 0.00,60.00,SummerDesignDay
651,22.883806809960015
1716,13467.576524925304
2,1, 7,21, 0,19, 0.00,60.00,SummerDesignDay
651,22.581360726703154
1716,8299.777139015288
2,1, 7,21, 0,20, 0.00,60.00,SummerDesignDay
651,22.843591219746349
1716,0.0
2,1, 7,21, 0,21, 0.00,60.00,SummerDesignDay
651,22.893787571765544
1716,13775.198739383435
2,1, 7,21, 0,22, 0.00,60.00,SummerDesignDay
651,22.51653918720111
1716,9811.616873174002
2,1, 7,21, 0,23, 0.00,60.00,SummerDesignDay
651,21.77410262089057
1716,12534.99044476543
2,1, 7,21, 0,24, 0.00,60.00,SummerDesignDay
651,21.22061641070699
1716,11132.83537495006
1,RUNPERIOD 1,  33.63, -84.43,  -5.00, 308.00
2,1, 7,21, 0, 1, 0.00,60.00,Monday
651,19.05385527599386
1716,9224.078641420234
2,1, 7,21, 0, 2, 0.00,60.00,Monday
651,18.676764534249526
1716,8121.277781542978
2,1, 7,21, 0, 3, 0.00,60.00,Monday
651,18.285263947896348
1716,10239.122344877691
2,1, 7,21, 0, 4, 0.00,60.00,Monday
651,18.147855792741454
1716,3940.321802108693
2,1, 7,21, 0, 5, 0.00,60.00,Monday
651,18.21858535226126
1716,5403.658136980465
2,1, 7,21, 0, 6, 0.00,60.00,Monday
651,18.05165323572052
1716,8880.864352465082
2,1, 7,21, 0, 7, 0.00,60.00,Monday
651,18.36747002275001
1716,9980.664316227661
2,1, 7,21, 0, 8, 0.00,60.00,Monday
651,20.234792714636759
1716,10629.582996859011
2,1, 7,21, 0, 9, 0.00,60.00,Monday
651,20.543314265682424
1716,0.0
2,1, 7,21, 0,10, 0.00,60.00,Monday
651,21.33050977569655
1716,13549.59964119648
2,1, 7,21, 0,11, 0.00,60.00,Monday
651,21.79682755022579
1716,13448.726146063007
2,1, 7,21, 0,12, 0.00,60.00,Monday
651,22.39808652770436
1716,13474.998197183817
2,1, 7,21, 0,13, 0.00,60.00,Monday
651,24.969742696358496
1716,13085.084423830484
2,1, 7,21, 0,14, 0.00,60.00,Monday
651,23.799397572454124
1716,13549.414760158657
2,1, 7,21, 0,15, 0.00,60.00,Monday
651,23.65702270891915
1716,13489.415384438928
2,1, 7,21, 0,16, 0.00,60.00,Monday
651,23.509800273563056
1716,13005.779537566876
2,1, 7,21, 0,17, 0.00,60.00,Monday
651,23.24458140411101
1716,13556.372306221921
2,1, 7,21, 0,18, 0.00,60.00,Monday
651,25.06504852473364
1716,13483.188068454423
2,1, 7,21, 0,19, 0.00,60.00,Monday
651,22.51130199732118
1716,7967.9172618427
2,1, 7,21, 0,20, 0.00,60.00,Monday
651,21.453745264933067
1716,0.0
2,1, 7,21, 0,21, 0.00,60.00,Monday
651,20.94056473930156
1716,12211.695987718811
2,1, 7,21, 0,22, 0.00,60.00,Monday
651,20.34803188005531
1716,7827.479111344132
2,1, 7,21, 0,23, 0.00,60.00,Monday
651,19.989969835733065
1716,10681.910309219189
2,1, 7,21, 0,24, 0.00,60.00,Monday
651,19.52824595553201
1716,9460.014696096508
2,2, 7,22, 0, 1, 0.00,60.00,Tuesday
651,19.18065894799005
1716,7089.733136271083
2,2, 7,22, 0, 2, 0.00,60.00,Tuesday
651,18.992987908372748
1716,6899.5764408742129
2,2, 7,22, 0, 3, 0.00,60.00,Tuesday
651,18.849138263418234
1716,6714.712577643744
2,2, 7,22, 0, 4, 0.00,60.00,Tuesday
651,18.67051529303709
1716,6446.647118853489
2,2, 7,22, 0, 5, 0.00,60.00,Tuesday
651,18.518435374771319
1716,6217.454514826171
2,2, 7,22, 0, 6, 0.00,60.00,Tuesday
651,18.41376306760795
1716,6065.622824819079
2,2, 7,22, 0, 7, 0.00,60.00,Tuesday
651,18.78055674076801
1716,6656.240734877045
2,2, 7,22, 0, 8, 0.00,60.00,Tuesday
651,20.56297792050028
1716,9331.396005713636
2,2, 7,22, 0, 9, 0.00,60.00,Tuesday
651,20.585352323928747
1716,9062.76651168412
2,2, 7,22, 0,10, 0.00,60.00,Tuesday
651,21.13761653300505
1716,9986.85780586836
2,2, 7,22, 0,11, 0.00,60.00,Tuesday
651,22.004238172606887
1716,11442.962587894037
2,2, 7,22, 0,12, 0.00,60.00,Tuesday
651,22.766580571026979
1716,12699.809589628501
2,2, 7,22, 0,13, 0.00,60.00,Tuesday
651,25.29391181854206
1716,13568.13616936489
2,2, 7,22, 0,14, 0.00,60.00,Tuesday
651,23.615573841649085
1716,13473.565109156594
2,2, 7,22, 0,15, 0.00,60.00,Tuesday
651,23.13594696231897
1716,13351.984660486592
2,2, 7,22, 0,16, 0.00,60.00,Tuesday
651,23.00641531365982
1716,13024.326235872437
2,2, 7,22, 0,17, 0.00,60.00,Tuesday
651,22.721768685343123
1716,12451.332611231282
2,2, 7,22, 0,18, 0.00,60.00,Tuesday
651,22.811574475366624
1716,12377.586616899123
2,2, 7,22, 0,19, 0.00,60.00,Tuesday
651,20.587822558878636
1716,8682.698707493073
2,2, 7,22, 0,20, 0.00,60.00,Tuesday
651,19.619229285038938
1716,7473.124116911315
2,2, 7,22, 0,21, 0.00,60.00,Tuesday
651,19.15923555127362
1716,6993.3005907619149
2,2, 7,22, 0,22, 0.00,60.00,Tuesday
651,18.92021356853329
1716,6756.812789967406
2,2, 7,22, 0,23, 0.00,60.00,Tuesday
651,18.788791858472899
1716,6622.010196973556
2,2, 7,22, 0,24, 0.00,60.00,Tuesday
651,18.677811608690786
1716,6469.456420833457
End of Data
 Number of Records Written=         192
