Program Version,EnergyPlus, Version 9.3.0-baff08990c, YMD=2021.08.05 02:13
1,5,Environment Title[],Latitude[deg],Longitude[deg],Time Zone[],Elevation[m]
2,8,Day of Simulation[],Month[],Day of Month[],DST Indicator[1=yes 0=no],Hour[],StartMinute[],EndMinute[],DayType
3,5,Cumulative Day of Simulation[],Month[],Day of Month[],DST Indicator[1=yes 0=no],DayType  ! When Daily Report Variables Requested
4,2,Cumulative Days of Simulation[],Month[]  ! When Monthly Report Variables Requested
5,1,Cumulative Days of Simulation[] ! When Run Period Report Variables Requested
6,1,Calendar Year of Simulation[] ! When Annual Report Variables Requested
675,1,PERIMETER_TOP_ZN_3,Zone Mean Air Temperature [C] !Hourly
1748,1,PERI3_TOP_LOTEMP,Zone Radiant HVAC Heating Rate [W] !Hourly
1753,1,PERI3_TOP_LOTEMP,Zone Radiant HVAC Pump Electric Power [W] !Hourly
1991,1,BOILER_RADSYS,Boiler Electric Power [W] !Hourly
2033,1,HOT WATER LOOP HW SUPPLY PUMP2,Pump Electric Power [W] !Hourly
End of Data Dictionary
1,RUNPERIOD 1,  40.78, -73.97,  -5.00,  40.00
2,1, 1,21, 0, 1, 0.00,60.00,Holiday
675,20.75992740784777
1748,7036.916352150605
1753,60.0
1991,8782.191177016031
2033,54.992337948717949
2,1, 1,21, 0, 2, 0.00,60.00,Holiday
675,20.92249090780839
1748,6677.29141502848
1753,60.0
1991,8243.960308053911
2033,54.992337948717949
2,1, 1,21, 0, 3, 0.00,60.00,Holiday
675,20.89421169970647
1748,6755.180278530267
1753,60.0
1991,8380.169766497203
2033,54.992337948717949
2,1, 1,21, 0, 4, 0.00,60.00,Holiday
675,20.886676068101786
1748,6790.089759276241
1753,60.0
1991,8363.549271504618
2033,54.992337948717949
2,1, 1,21, 0, 5, 0.00,60.00,Holiday
675,20.89567973085369
1748,6781.290497623695
1753,60.0
1991,8373.24646870515
2033,54.992337948717949
2,1, 1,21, 0, 6, 0.00,60.00,Holiday
675,20.91971308905173
1748,6746.036191508186
1753,60.0
1991,8312.7367387893
2033,54.992337948717949
2,1, 1,21, 0, 7, 0.00,60.00,Holiday
675,20.94586940389067
1748,6689.739616274218
1753,60.0
1991,8214.788676115006
2033,54.992337948717949
2,1, 1,21, 0, 8, 0.00,60.00,Holiday
675,20.895971106463504
1748,6797.28696508017
1753,60.0
1991,8390.688754147432
2033,54.992337948717949
2,1, 1,21, 0, 9, 0.00,60.00,Holiday
675,21.0877237158831
1748,6405.9075071304209
1753,60.0
1991,7917.329914790852
2033,54.992337948717949
2,1, 1,21, 0,10, 0.00,60.00,Holiday
675,21.45731956743911
1748,5606.821318351351
1753,60.0
1991,6873.107620262599
2033,54.992337948717949
2,1, 1,21, 0,11, 0.00,60.00,Holiday
675,21.652239900627654
1748,5174.96667905
1753,60.0
1991,6317.603566722149
2033,54.992337948717949
2,1, 1,21, 0,12, 0.00,60.00,Holiday
675,21.76453508870869
1748,4937.27103388932
1753,60.0
1991,6046.469117818588
2033,54.992337948717949
2,1, 1,21, 0,13, 0.00,60.00,Holiday
675,21.83405646627859
1748,4770.501677814599
1753,60.0
1991,5848.978017781237
2033,54.992337948717949
2,1, 1,21, 0,14, 0.00,60.00,Holiday
675,21.892366833870793
1748,4664.483415208011
1753,60.0
1991,5724.018939480661
2033,54.992337948717949
2,1, 1,21, 0,15, 0.00,60.00,Holiday
675,21.83085029799474
1748,4762.24627059928
1753,60.0
1991,5845.0573170864749
2033,54.992337948717949
2,1, 1,21, 0,16, 0.00,60.00,Holiday
675,21.606445000098878
1748,5266.909769724322
1753,60.0
1991,6467.517763386286
2033,54.992337948717949
2,1, 1,21, 0,17, 0.00,60.00,Holiday
675,21.663176206879326
1748,5187.623031990679
1753,60.0
1991,6380.225640749041
2033,54.992337948717949
2,1, 1,21, 0,18, 0.00,60.00,Holiday
675,21.687694192438636
1748,5133.483234458474
1753,60.0
1991,6296.8160154279089
2033,54.992337948717949
2,1, 1,21, 0,19, 0.00,60.00,Holiday
675,21.46226197750518
1748,5635.473251008067
1753,60.0
1991,6924.654390322704
2033,54.992337948717949
2,1, 1,21, 0,20, 0.00,60.00,Holiday
675,21.311700776207027
1748,5959.892403666056
1753,60.0
1991,7332.588208385641
2033,54.992337948717949
2,1, 1,21, 0,21, 0.00,60.00,Holiday
675,21.13801916878671
1748,6311.048221117024
1753,60.0
1991,7793.785233713132
2033,54.992337948717949
2,1, 1,21, 0,22, 0.00,60.00,Holiday
675,20.94512298138465
1748,6689.928750196546
1753,60.0
1991,8246.477741361767
2033,54.992337948717949
2,1, 1,21, 0,23, 0.00,60.00,Holiday
675,20.834810676975925
1748,6902.9339497311179
1753,60.0
1991,8542.515234231656
2033,54.992337948717949
2,1, 1,21, 0,24, 0.00,60.00,Holiday
675,20.74787823837672
1748,7045.718948019674
1753,60.0
1991,8693.78338828823
2033,54.992337948717949
2,2, 1,22, 0, 1, 0.00,60.00,Tuesday
675,20.60892210405188
1748,7315.498957288333
1753,60.0
1991,9074.598950987336
2033,54.992337948717949
2,2, 1,22, 0, 2, 0.00,60.00,Tuesday
675,20.438583903082848
1748,7638.298122018333
1753,60.0
1991,9455.334741020672
2033,54.992337948717949
2,2, 1,22, 0, 3, 0.00,60.00,Tuesday
675,20.40259556920486
1748,7713.164984180335
1753,60.0
1991,9544.17274172905
2033,54.992337948717949
2,2, 1,22, 0, 4, 0.00,60.00,Tuesday
675,20.519378461470727
1748,7449.910980805876
1753,60.0
1991,9234.40745399851
2033,54.992337948717949
2,2, 1,22, 0, 5, 0.00,60.00,Tuesday
675,20.505569339308424
1748,7474.1277073075639
1753,60.0
1991,9236.776902880985
2033,54.992337948717949
2,2, 1,22, 0, 6, 0.00,60.00,Tuesday
675,20.292156280799447
1748,7900.034578927936
1753,60.0
1991,9777.709099225074
2033,54.992337948717949
2,2, 1,22, 0, 7, 0.00,60.00,Tuesday
675,20.959605122444338
1748,6609.866207550445
1753,60.0
1991,8199.44253985712
2033,54.992337948717949
2,2, 1,22, 0, 8, 0.00,60.00,Tuesday
675,18.980336687938804
1748,10611.851452799401
1753,60.0
1991,13094.018949318108
2033,54.992337948717949
2,2, 1,22, 0, 9, 0.00,60.00,Tuesday
675,19.29289024567266
1748,9808.90454312224
1753,60.0
1991,12212.326066642963
2033,54.992337948717949
2,2, 1,22, 0,10, 0.00,60.00,Tuesday
675,19.50850667833565
1748,9203.475766068073
1753,60.0
1991,11417.421932879884
2033,54.992337948717949
2,2, 1,22, 0,11, 0.00,60.00,Tuesday
675,19.725111656118665
1748,8649.371033353791
1753,60.0
1991,10727.09449162542
2033,54.992337948717949
2,2, 1,22, 0,12, 0.00,60.00,Tuesday
675,19.849710295070105
1748,8292.656404877329
1753,60.0
1991,10292.384578441774
2033,54.992337948717949
2,2, 1,22, 0,13, 0.00,60.00,Tuesday
675,19.744777163040874
1748,8469.190727459674
1753,60.0
1991,10528.362481621383
2033,54.992337948717949
2,2, 1,22, 0,14, 0.00,60.00,Tuesday
675,19.88818212304063
1748,8124.708314723199
1753,60.0
1991,10049.243619209548
2033,54.992337948717949
2,2, 1,22, 0,15, 0.00,60.00,Tuesday
675,19.892845061648936
1748,8091.362638629129
1753,60.0
1991,10017.15382740399
2033,54.992337948717949
2,2, 1,22, 0,16, 0.00,60.00,Tuesday
675,19.801271508328616
1748,8275.491263390313
1753,60.0
1991,10260.794228861912
2033,54.992337948717949
2,2, 1,22, 0,17, 0.00,60.00,Tuesday
675,19.75553338714973
1748,8400.198003212763
1753,60.0
1991,10430.415183166675
2033,54.992337948717949
2,2, 1,22, 0,18, 0.00,60.00,Tuesday
675,19.323297052593735
1748,9317.196797314584
1753,60.0
1991,11527.192642673755
2033,54.992337948717949
2,2, 1,22, 0,19, 0.00,60.00,Tuesday
675,18.999221112550918
1748,10047.094635258434
1753,60.0
1991,12458.21043003957
2033,54.992337948717949
2,2, 1,22, 0,20, 0.00,60.00,Tuesday
675,18.896794126918985
1748,10269.810546695555
1753,60.0
1991,12741.946430678126
2033,54.992337948717949
2,2, 1,22, 0,21, 0.00,60.00,Tuesday
675,18.714178733383169
1748,10655.033367680884
1753,60.0
1991,13218.84755154473
2033,54.992337948717949
2,2, 1,22, 0,22, 0.00,60.00,Tuesday
675,20.641995765890337
1748,6750.238049455913
1753,60.0
1991,8433.584788904476
2033,54.992337948717949
2,2, 1,22, 0,23, 0.00,60.00,Tuesday
675,19.402070862979483
1748,9434.987540674401
1753,60.0
1991,11628.771206621672
2033,54.992337948717949
2,2, 1,22, 0,24, 0.00,60.00,Tuesday
675,19.12687289086992
1748,10057.005699621466
1753,60.0
1991,12473.614026021583
2033,54.992337948717949
End of Data
 Number of Records Written=         240
