Program Version,EnergyPlus, Version 9.5.0-de239b2e5f, YMD=2021.07.16 05:02
1,5,Environment Title[],Latitude[deg],Longitude[deg],Time Zone[],Elevation[m]
2,8,Day of Simulation[],Month[],Day of Month[],DST Indicator[1=yes 0=no],Hour[],StartMinute[],EndMinute[],DayType
3,5,Cumulative Day of Simulation[],Month[],Day of Month[],DST Indicator[1=yes 0=no],DayType  ! When Daily Report Variables Requested
4,2,Cumulative Days of Simulation[],Month[]  ! When Monthly Report Variables Requested
5,1,Cumulative Days of Simulation[] ! When Run Period Report Variables Requested
6,1,Calendar Year of Simulation[] ! When Annual Report Variables Requested
651,1,PERIMETER_BOT_ZN_1,Zone Mean Air Temperature [C] !Hourly
1716,1,PERI1_TOP_LOTEMP,Zone Radiant HVAC Cooling Rate [W] !Hourly
End of Data Dictionary
1,ATLANTA-HARTSFIELD.JACKSON.INTL.AP_GA_USA ANN HTG 99.6% CONDNS DB,  33.63, -84.43,  -5.00, 308.00
2,1, 1,21, 0, 1, 0.00,60.00,WinterDesignDay
651,16.051292496802814
1716,0.0
2,1, 1,21, 0, 2, 0.00,60.00,WinterDesignDay
651,16.04967177145685
1716,0.0
2,1, 1,21, 0, 3, 0.00,60.00,WinterDesignDay
651,16.049873333433469
1716,0.0
2,1, 1,21, 0, 4, 0.00,60.00,WinterDesignDay
651,16.049194020368377
1716,0.0
2,1, 1,21, 0, 5, 0.00,60.00,WinterDesignDay
651,16.049710385137435
1716,0.0
2,1, 1,21, 0, 6, 0.00,60.00,WinterDesignDay
651,16.04868260858905
1716,0.0
2,1, 1,21, 0, 7, 0.00,60.00,WinterDesignDay
651,16.092909520184798
1716,0.0
2,1, 1,21, 0, 8, 0.00,60.00,WinterDesignDay
651,16.05122271762102
1716,0.0
2,1, 1,21, 0, 9, 0.00,60.00,WinterDesignDay
651,16.058710730765893
1716,0.0
2,1, 1,21, 0,10, 0.00,60.00,WinterDesignDay
651,16.053794298409128
1716,0.0
2,1, 1,21, 0,11, 0.00,60.00,WinterDesignDay
651,16.04848095332204
1716,0.0
2,1, 1,21, 0,12, 0.00,60.00,WinterDesignDay
651,16.053891404911579
1716,0.0
2,1, 1,21, 0,13, 0.00,60.00,WinterDesignDay
651,16.057687116175669
1716,0.0
2,1, 1,21, 0,14, 0.00,60.00,WinterDesignDay
651,16.052163085869624
1716,0.0
2,1, 1,21, 0,15, 0.00,60.00,WinterDesignDay
651,16.051593652584953
1716,0.0
2,1, 1,21, 0,16, 0.00,60.00,WinterDesignDay
651,16.05849190266736
1716,0.0
2,1, 1,21, 0,17, 0.00,60.00,WinterDesignDay
651,16.05733374460486
1716,0.0
2,1, 1,21, 0,18, 0.00,60.00,WinterDesignDay
651,16.052558928224778
1716,0.0
2,1, 1,21, 0,19, 0.00,60.00,WinterDesignDay
651,16.041961590605493
1716,0.0
2,1, 1,21, 0,20, 0.00,60.00,WinterDesignDay
651,16.045137506644087
1716,0.0
2,1, 1,21, 0,21, 0.00,60.00,WinterDesignDay
651,16.037761904783687
1716,0.0
2,1, 1,21, 0,22, 0.00,60.00,WinterDesignDay
651,16.05198722233478
1716,0.0
2,1, 1,21, 0,23, 0.00,60.00,WinterDesignDay
651,16.05050458968803
1716,0.0
2,1, 1,21, 0,24, 0.00,60.00,WinterDesignDay
651,16.052974156462726
1716,0.0
1,ATLANTA-HARTSFIELD.JACKSON.INTL.AP_GA_USA ANN CLG .4% CONDNS DB=>MWB,  33.63, -84.43,  -5.00, 308.00
2,1, 7,21, 0, 1, 0.00,60.00,SummerDesignDay
651,19.17655478766305
1716,10105.154790435003
2,1, 7,21, 0, 2, 0.00,60.00,SummerDesignDay
651,19.078779818248035
1716,9960.953282134926
2,1, 7,21, 0, 3, 0.00,60.00,SummerDesignDay
651,19.002238182485443
1716,9819.70934524897
2,1, 7,21, 0, 4, 0.00,60.00,SummerDesignDay
651,18.937774058855408
1716,9686.964642892925
2,1, 7,21, 0, 5, 0.00,60.00,SummerDesignDay
651,18.881969738794525
1716,9568.109958387302
2,1, 7,21, 0, 6, 0.00,60.00,SummerDesignDay
651,18.84379441817796
1716,9507.675401340404
2,1, 7,21, 0, 7, 0.00,60.00,SummerDesignDay
651,19.203685411719719
1716,10786.312984846874
2,1, 7,21, 0, 8, 0.00,60.00,SummerDesignDay
651,19.429060221637326
1716,11073.960215637317
2,1, 7,21, 0, 9, 0.00,60.00,SummerDesignDay
651,19.75752234822421
1716,11951.011545422427
2,1, 7,21, 0,10, 0.00,60.00,SummerDesignDay
651,20.151085451893246
1716,12994.166524497397
2,1, 7,21, 0,11, 0.00,60.00,SummerDesignDay
651,20.701952540243345
1716,14570.435903934256
2,1, 7,21, 0,12, 0.00,60.00,SummerDesignDay
651,21.291107562203597
1716,16062.22166288509
2,1, 7,21, 0,13, 0.00,60.00,SummerDesignDay
651,21.750254412783275
1716,16971.574551246846
2,1, 7,21, 0,14, 0.00,60.00,SummerDesignDay
651,22.001048120439756
1716,17194.383326892257
2,1, 7,21, 0,15, 