Program Version,EnergyPlus, Version 9.5.0-de239b2e5f, YMD=2021.07.16 05:02
1,5,Environment Title[],Latitude[deg],Longitude[deg],Time Zone[],Elevation[m]
2,8,Day of Simulation[],Month[],Day of Month[],DST Indicator[1=yes 0=no],Hour[],StartMinute[],EndMinute[],DayType
3,5,Cumulative Day of Simulation[],Month[],Day of Month[],DST Indicator[1=yes 0=no],DayType  ! When Daily Meters Requested
4,2,Cumulative Days of Simulation[],Month[]  ! When Monthly Meters Requested
5,1,Cumulative Days of Simulation[] ! When Run Period Meters Requested
6,1,Calendar Year of Simulation[] ! When Annual Meters Requested
9,1,Electricity:Facility [J] !Hourly
1508,1,ElectricityNet:Facility [J] !Hourly
45,1,InteriorLights:Electricity [J] !Hourly
432,1,InteriorEquipment:Electricity [J] !Hourly
End of Data Dictionary
1,ATLANTA-HARTSFIELD.JACKSON.INTL.AP_GA_USA ANN HTG 99.6% CONDNS DB,  33.63, -84.43,  -5.00, 308.00
2,1, 1,21, 0, 1, 0.00,60.00,WinterDesignDay
9,115919623.926708
45,0.0
432,0.0
1508,115919623.926708
2,1, 1,21, 0, 2, 0.00,60.00,WinterDesignDay
9,115955623.926708
45,0.0
432,0.0
1508,115955623.926708
2,1, 1,21, 0, 3, 0.00,60.00,WinterDesignDay
9,115919623.926708
45,0.0
432,0.0
1508,115919623.926708
2,1, 1,21, 0, 4, 0.00,60.00,WinterDesignDay
9,115919623.926708
45,0.0
432,0.0
1508,115919623.926708
2,1, 1,21, 0, 5, 0.00,60.00,WinterDesignDay
9,115919623.926708
45,0.0
432,0.0
1508,115919623.926708
2,1, 1,21, 0, 6, 0.00,60.00,WinterDesignDay
9,115919623.926708
45,0.0
432,0.0
1508,115919623.926708
2,1, 1,21, 0, 7, 0.00,60.00,WinterDesignDay
9,126063883.92670787
45,0.0
432,0.0
1508,126063883.92670787
2,1, 1,21, 0, 8, 0.00,60.00,WinterDesignDay
9,121423033.92670787
45,0.0
432,0.0
1508,121423033.92670787
2,1, 1,21, 0, 9, 0.00,60.00,WinterDesignDay
9,107248483.92670802
45,0.0
432,0.0
1508,107248483.92670802
2,1, 1,21, 0,10, 0.00,60.00,WinterDesignDay
9,107284483.92670802
45,0.0
432,0.0
1508,107284483.92670802
2,1, 1,21, 0,11, 0.00,60.00,WinterDesignDay
9,107284483.92670802
45,0.0
432,0.0
1508,107284483.92670802
2,1, 1,21, 0,12, 0.00,60.00,WinterDesignDay
9,107248483.92670802
45,0.0
432,0.0
1508,107248483.92670802
2,1, 1,21, 0,13, 0.00,60.00,WinterDesignDay
9,107284483.92670802
45,0.0
432,0.0
1508,107284483.92670802
2,1, 1,21, 0,14, 0.00,60.00,WinterDesignDay
9,107284483.92670802
45,0.0
432,0.0
1508,107284483.92670802
2,1, 1,21, 0,15, 0.00,60.00,WinterDesignDay
9,107284483.92670802
45,0.0
432,0.0
1508,107284483.92670802
2,1, 1,21, 0,16, 0.00,60.00,WinterDesignDay
9,107248483.92670802
45,0.0
432,0.0
1508,107248483.92670802
2,1, 1,21, 0,17, 0.00,60.00,WinterDesignDay
9,107284483.92670802
45,0.0
432,0.0
1508,107284483.92670802
2,1, 1,21, 0,18, 0.00,60.00,WinterDesignDay
9,109798003.92670802
45,0.0
432,0.0
1508,109798003.92670802
2,1, 1,21, 0,19, 0.00,60.00,WinterDesignDay
9,126423883.92670787
45,0.0
432,0.0
1508,126423883.92670787
2,1, 1,21, 0,20, 0.00,60.00,WinterDesignDay
9,118429003.926708
45,0.0
432,0.0
1508,118429003.92670787
2,1, 1,21, 0,21, 0.00,60.00,WinterDesignDay
9,118465003.926708
45,0.0
432,0.0
1508,118465003.92670787
2,1, 1,21, 0,22, 0.00,60.00,WinterDesignDay
9,118501003.926708
45,0.0
432,0.0
1508,118501003.92670787
2,1, 1,21, 0,23, 0.00,60.00,WinterDesignDay
9,118501003.926708
45,0.0
432,0.0
1508,118501003.92670787
2,1, 1,21, 0,24, 0.00,60.00,WinterDesignDay
9,118501003.926708
45,0.0
432,0.0
1508,118501003.92670787
1,ATLANTA-HARTSFIELD.JACKSON.INTL.AP_GA_USA ANN CLG .4% CONDNS DB=>MWB,  33.63, -84.43,  -5.00, 308.00
2,1, 7,21, 0, 1, 0.00,60.00,SummerDesignDay
9,523760640.6234784
45,152517470.7542746
432,224813060.55296675
1508,523760640.6234784
2,1, 7,21, 0, 2, 0.00,60.00,SummerDesignDay
9,523820640.6234784
45,152517470.7542746
432,224813060.55296675
1508,523820640.6234784
2,1, 7,21, 0, 3, 0.00,60.00,SummerDesignDay
9,523910640.6234784
45,152517470.7542746
432,224813060.55296675
1508,523910640.6234784
2,1, 7,21, 0, 4, 0.00,60.00,SummerDesignDay
9,524036640.6234784
45,152517470.7542746
432,224813060.55296675
1508,524036640.6234784
2,1, 7,21, 0, 5, 0.00,60.00,SummerDesignDay
9,524048640.6234784
45,152517470.7542746
432,224813060.55296675
1