Program Version,EnergyPlus, Version 9.4.0-998c4b761e, YMD=2021.06.24 02:30
1,5,Environment Title[],Latitude[deg],Longitude[deg],Time Zone[],Elevation[m]
2,8,Day of Simulation[],Month[],Day of Month[],DST Indicator[1=yes 0=no],Hour[],StartMinute[],EndMinute[],DayType
3,5,Cumulative Day of Simulation[],Month[],Day of Month[],DST Indicator[1=yes 0=no],DayType  ! When Daily Report Variables Requested
4,2,Cumulative Days of Simulation[],Month[]  ! When Monthly Report Variables Requested
5,1,Cumulative Days of Simulation[] ! When Run Period Report Variables Requested
6,1,Calendar Year of Simulation[] ! When Annual Report Variables Requested
7,1,Environment,Site Outdoor Air Drybulb Temperature [C] !Each Call
768,1,PERIMETER_TOP_ZN_2,Zone Mean Air Temperature [C] !Each Call
769,1,PERIMETER_TOP_ZN_1,Zone Mean Air Temperature [C] !Each Call
2001,1,CORE_BOT_LOTEMP,Zone Radiant HVAC Pump Inlet Temperature [C] !Each Call
2043,1,CORE_MID_LOTEMP,Zone Radiant HVAC Pump Inlet Temperature [C] !Each Call
2049,1,CORE_TOP_LOTEMP,Zone Radiant HVAC Pump Inlet Temperature [C] !Each Call
2051,1,PERI1_TOP_LOTEMP,Zone Radiant HVAC Heating Rate [W] !Each Call
2054,1,PERI1_TOP_LOTEMP,Zone Radiant HVAC Cooling Rate [W] !Each Call
2057,1,PERI1_TOP_LOTEMP,Zone Radiant HVAC Pump Inlet Temperature [C] !Each Call
2059,1,PERI2_TOP_LOTEMP,Zone Radiant HVAC Heating Rate [W] !Each Call
2062,1,PERI2_TOP_LOTEMP,Zone Radiant HVAC Cooling Rate [W] !Each Call
2065,1,PERI2_TOP_LOTEMP,Zone Radiant HVAC Pump Inlet Temperature [C] !Each Call
2071,1,PERI3_TOP_LOTEMP,Zone Radiant HVAC Pump Inlet Temperature [C] !Each Call
2077,1,PERI4_TOP_LOTEMP,Zone Radiant HVAC Pump Inlet Temperature [C] !Each Call
2083,1,PERI1_MID_LOTEMP,Zone Radiant HVAC Pump Inlet Temperature [C] !Each Call
2089,1,PERI2_MID_LOTEMP,Zone Radiant HVAC Pump Inlet Temperature [C] !Each Call
2095,1,PERI3_MID_LOTEMP,Zone Radiant HVAC Pump Inlet Temperature [C] !Each Call
2101,1,PERI4_MID_LOTEMP,Zone Radiant HVAC Pump Inlet Temperature [C] !Each Call
2107,1,PERI1_BOT_LOTEMP,Zone Radiant HVAC Pump Inlet Temperature [C] !Each Call
2113,1,PERI2_BOT_LOTEMP,Zone Radiant HVAC Pump Inlet Temperature [C] !Each Call
2119,1,PERI3_BOT_LOTEMP,Zone Radiant HVAC Pump Inlet Temperature [C] !Each Call
2125,1,PERI4_BOT_LOTEMP,Zone Radiant HVAC Pump Inlet Temperature [C] !Each Call
End of Data Dictionary
1,ATLANTA-HARTSFIELD.JACKSON.INTL.AP_GA_USA ANN HTG 99.6% CONDNS DB,  41.98, -87.92,  -6.00, 201.00
2,1, 1,21, 0, 1, 0.00, 1.00,WinterDesignDay
2001,30.047667836917716
2043,30.00206705888438
2049,30.416804970882614
2051,0.0
2054,0.0
2057,30.064033660472128
2059,0.0
2062,0.0
2065,30.09843362734106
2071,30.02682036327016
2077,30.081568167565466
2083,30.26262129534573
2089,30.05908570818015
2095,30.069950870356658
2101,30.06721871736797
2107,30.048148670300848
2113,30.12736548385771
2119,30.10856685473429
2125,30.029292571527898
7,-6.3
768,19.103653824181057
769,19.053989195165526
2,1, 1,21, 0, 1, 1.00, 2.00,WinterDesignDay
2001,30.03771668285353
2043,30.00206705888438
2049,30.416833623930335
2051,0.0
2054,0.0
2057,30.064033660472128
2059,0.0
2062,0.0
2065,30.09843362734106
2071,30.02682036327016
2077,30.09143103417019
2083,30.21954940017573
2089,30.05908570818015
2095,30.069950870356658
2101,30.06721871736797
2107,30.048148670300848
2113,30.12736548385771
2119,30.208223355740399
2125,30.029292571527898
7,-6.3
768,19.09412617401615
769,19.041823464125195
2,1, 1,21, 0, 1, 2.00, 3.00,WinterDesignDay
2001,30.026420446376716
2043,30.00206705888438
2049,30.416841637400649
2051,0.0
2054,0.0
2057,30.064033660472128
2059,0.0
2062,0.0
2065,30.09843362734106
2071,29.996061869260939
2077,30.250475881378219
2083,30.140189340972307
2089,30.05908570818015
2095,30.069950870356658
2101,30.06721871736797
2107,30.048148670300848
2113,30.12736548385771
2119,30.2938020004114
2125,30.029292571527898
7,-6.3
768,19.083221084153995
769,19.02879807233462
2,1, 1,21, 0, 1, 3.00, 4.00,WinterDesignDay
2001,30.013960872005474
2043,30.00206705888438
2049,30.416837408645774
2051,0.0
2054,0.0
2057,30.064033660472128
2059,0.0
2062,0.0
2065,30.09843362734106
2071,30.130981721610117
2077,30.38720312699345
2083,30.028011682069335
2089,30.05908570818015
2095,30.017487604924509
2101,30.06721871736797
2107,30.048148670300848
2113,30.12736548385771
2119,30.359409044439415
2125,30.029292571527898
7,-6.3
768,19.071155157021857
769,19.015046398832486
2,1, 1,21, 0, 1, 4.00, 5.00,WinterDesignDay
2001,30.000503603469615
2043,30.00206705888438
2049,30.4168299608116
2051,0.0
2054,0.0
2057,30.064033660472128
2059,0.0
2062,0.0
2065,30.09843362734106
2071,30.25811324848767
2077,30.484259967134887
2083,30.08485607660557
2089,30.05908570818015
2095,30.128189098254059
2101,30.06721871736797
2107,30.048148670300848
2113,30.12736548385771
2119,30.402327986062344
2125,30.029292571527898
7,-6.3
768,19.058111719470998
769,19.000681091807875
2,1, 1,21, 0, 1, 5.00, 6.00,WinterDesignDay
2001,29.986198480065807
2043,30.00206705888438
2049,30.416828559581928
2051,0.0
2054,0.0
2057,30.064033660472128
2059,0.0
2062,0.0
2065,30.09843362734106
2071,30.366318023811336
2077,30.53017189835673
2083,30.08485607660557
2089,30.05908570818015
2095,30.229230826936165
2101,30.06721871736797
2107,30.048148670300848
2113,30.12736548385771
2119,30.42227228763868
2125,30.029292571527898
7,-6.3
768,19.0442453783742
769,18.9857972735003
2,1, 1,21, 0, 1, 6.00, 7.00,WinterDesignDay
2001,30.000122415014056
2043,30.00206705888438
2049,30.41684231045124
2051,24487.406139408926
2054,0.0
2057,30.086654153176846
2059,0.0
2062,0.0
2065,30.09843362734106
2071,30.4481243961969
2077,30.520289642342445
2083,30.08485607660557
2089,30.05908570818015
2095,30.31085356247321
2101,30.06721871736797
2107,30.048148670300848
2113,30.12736548385771
2119,30.420424932307964
2125,30.029292571527898
7,-6.3
768,19.02968628952031
769,18.97109808131046
2,1, 1,21, 0, 1, 7.00, 8.00,WinterDesignDay
2001,30.000122415014056
2043,30.00206705888438
2049,30.416879763738256
2051,24725.118753958188
2054,0.0
2057,30.233646075075258
2059,0.0
2062,0.0
2065,30.09843362734106
2071,30.500224927183195
2077,30.45519845240614
2083,30.08485607660557
2089,30.05908570818015
2095,30.366554860661208
2101,30.06721871736797
2107,30.048148670300848
2113,30.12736548385771
2119,30.39869181257541
2125,30.029292571527898
7,-6.3
768,19.014543984012297
769,18.95796768118998
2,1, 1,21, 0, 1, 8.00, 9.00,WinterDesignDay
2001,30.000122415014056
2043,30.00206705888438
2049,30.4169485342755
2051,24937.461153622426
2054,0.0
2057,30.36495007628003
2059,0.0
2062,0.0
2065,30.09843362734106
2071,30.522471833063596
2077,30.338634336064187
2083,30.08485607660557
2089,30.05908570818015
2095,30.393566956009868
2101,30.06721871736797
2107,30.048148670300848
2113,30.12736548385771
2119,30.359238303392087
2125,30.029292571527898
7,-6.3
768,18.998910700509389
769,18.94776980167346
2,1, 1,21, 0, 1, 9.00,10.00,WinterDesignDay
2001,30.000122415014056
2043,29.98470730632046
2049,30.41705495887143
2051,25102.379373033567
2054,0.0
2057,30.466928871445249
2059,19464.18182112736
2062,0.0
2065,29.941832757471013
2071,30.516603331358565
2077,30.175859751258029
2083,30.08485607660557
2089,30.05908570818015
2095,30.39196250703743
2101,30.06721871736797
2107,30.048148670300848
2113,30.12736548385771
2119,30.30423881808127
2125,30.029292571527898
7,-6.3
768,18.983660240812087
769,18.941412126979068
2,1, 1,21, 0, 1,10.00,11.00,WinterDesignDay
2001,30.000122415014056
2043,29.98789009648344
2049,30.417203796994305
2051,25205.194511072386
2054,0.0
2057,30.53050561838917
2059,19661.93003004791
2062,0.0
2065,30.094337354444038
2071,30.485262209542545
2077,29.97265818135949
2083,30.08485607660557
2089,30.05908570818015
2095,30.363506571093386
2101,30.06721871736797
2107,30.048148670300848
2113,30.12736548385771
2119,30.235754496569716
2125,30.029292571527898
7,-6.3
768,18.970509392097367
769,18.939274473282774
2,1, 1,21, 0, 1,11.00,12.00,WinterDesignDay
2001,30.000122415014056
2043,29.990058376644869
2049,30.417397980014298
2051,25239.764250863824
2054,0.0
2057,30.551882155352119
2059,19832.45320316779
2062,0.0
2065,30.22584584159123
2071,30.43139356119315
2077,30.040470602348145
2083,30.08485607660557
2089,30.05908570818015
2095,30.310767881876016
2101,30.06721871736797
2107,30.048148670300848
2113,30.017074224536029
2119,30.155679808050605
2125,30.046853581264498
7,-6.3
768,18.961149511289155
769,18.941332747641739
2,1, 1,21, 0, 1,12.00,13.00,WinterDesignDay
2001,30.000122415014056
2043,29.990518555853634
2049,30.41763843225048
2051,25206.478219018645
2054,0.0
2057,30.53129941176246
2059,19953.820014547327
2062,0.0
2065,30.31944464967335
2071,30.357924619838987
2077,30.040470602348145
2083,30.08485607660557
2089,30.05908570818015
2095,30.236572194453549
2101,30.06721871736797
2107,30.054554823244176
2113,30.14458767225847
2119,30.06572471229782
2125,30.179527298626515
7,-6.3
768,18.95670102180086
769,18.947320484168679
2,1, 1,21, 0, 1,13.00,14.00,WinterDesignDay
2001,30.000122415014056
2043,29.988755555449126
2049,30.4179239850972
2051,25109.645652530075
2054,0.0
2057,30.47142204649306
2059,20011.50226453665
2062,0.0
2065,30.363929544556286
2071,30.267612114644959
2077,30.040470602348145
2083,30.08485607660557
2089,29.98961336612748
2095,30.14371182390509
2101,30.06721871736797
2107,30.176825076872789
2113,30.253486804138423
2119,29.967415135588536
2125,30.292553749829968
7,-6.3
768,18.957621806633296
769,18.956854523805846
2,1, 1,21, 0, 1,14.00,15.00,WinterDesignDay
2001,30.000122415014056
2043,29.984493543207934
2049,30.418251396912834
2051,24955.462928738387
2054,0.0
2057,30.376081650121394
2059,19999.56271943249
2062,0.0
2065,30.35472169623194
2071,30.162978233046933
2077,30.040470602348145
2083,30.08485607660557
2089,30.112762011709437
2095,30.034808065850389
2101,30.06721871736797
2107,30.28572150975289
2113,30.329475139849547
2119,30.059946109832795
2125,30.371172547356108
7,-6.3
768,18.963861598572007
769,18.96951263905182
2,1, 1,21, 0, 1,15.00,16.00,WinterDesignDay
2001,30.000122415014056
2043,30.00305507866191
2049,30.418615476900468
2051,24750.758232621378
2054,0.0
2057,30.24950049766163
2059,19918.65317936563
2062,0.0
2065,30.29232377684483
2071,30.04629143413968
2077,30.040470602348145
2083,30.08485607660557
2089,30.2148842357877
2095,30.11105894721844
2101,30.06721871736797
2107,30.369989702034695
2113,30.362945330473186
2119,30.059946109832795
2125,30.405474627929384
7,-6.3
768,18.975064198397946
769,18.984875090616009
2,1, 1,21, 0, 1,16.00,17.00,WinterDesignDay
2001,30.000122415014056
2043,30.00305507866191
2049,30.419009293158188
2051,24502.319510272195
2054,0.0
2057,30.095875982019764
2059,19773.39237445855
2062,0.0
2065,30.18029777858544
2071,30.120377135839328
2077,30.040470602348145
2083,30.08485607660557
2089,30.280496687673236
2095,30.11105894721844
2101,30.06721871736797
2107,30.422027026051447
2113,30.349809537484558
2119,30.059946109832795
2125,30.391263833850088
7,-6.3
768,18.99072511563894
769,19.00254467608409
2,1, 1,21, 0, 1,17.00,18.00,WinterDesignDay
2001,30.000122415014056
2043,30.00305507866191
2049,30.419424448411758
2051,0.0
2054,0.0
2057,30.151249093839924
2059,19570.32188373703
2062,0.0
2065,30.023688606175477
2071,30.120377135839328
2077,30.040470602348145
2083,30.08485607660557
2089,30.299315212414798
2095,30.11105894721844
2101,30.06721871736797
2107,30.43851649810683
2113,30.290257792708144
2119,30.059946109832795
2125,30.328772043811708
7,-6.3
768,19.010289135418316
769,19.02146356874728
2,1, 1,21, 0, 1,18.00,19.00,WinterDesignDay
2001,30.000122415014056
2043,30.00305507866191
2049,30.41985142924897
2051,0.0
2054,0.0
2057,30.151249093839924
2059,0.0
2062,0.0
2065,30.092748843610587
2071,30.120377135839328
2077,30.040470602348145
2083,30.08485607660557
2089,30.267141713662796
2095,30.11105894721844
2101,30.06721871736797
2107,30.41945570688518
2113,30.18709087940835
2119,30.059946109832795
2125,30.220933659617818
7,-6.3
768,19.03231914553274
769,19.0399953350023
2,1, 1,21, 0, 1,19.00,20.00,WinterDesignDay
2001,30.000122415014056
2043,30.00305507866191
2049,30.420280040190304
2051,0.0
2054,0.0
2057,30.151249093839924
2059,0.0
2062,0.0
2065,30.092748843610587
2071,30.120377135839328
2077,30.040470602348145
2083,30.08485607660557
2089,30.18446779971306
2095,30.11105894721844
2101,30.06721871736797
2107,30.366860910979086
2113,30.044404470725366
2119,30.059946109832795
2125,30.0720238082196
7,-6.3
768,19.054643731704159
769,19.056572155487485
2,1, 1,21, 0, 1,20.00,21.00,WinterDesignDay
2001,30.000122415014056
2043,30.00305507866191
2049,30.42069991950832
2051,0.0
2054,0.0
2057,30.151249093839924
2059,0.0
2062,0.0
2065,30.092748843610587
2071,30.120377135839328
2077,30.040470602348145
2083,30.08485607660557
2089,30.05461916067503
2095,30.11105894721844
2101,30.02774155022391
2107,30.283746174051588
2113,30.12257609353199
2119,30.059946109832795
2125,30.14794701581991
7,-6.3
768,19.075180154146666
769,19.070130163562227
2,1, 1,21, 0, 1,21.00,22.00,WinterDesignDay
2001,30.000122415014056
2043,30.00305507866191
2049,30.421101099227774
2051,0.0
2054,0.0
2057,30.151249093839924
2059,0.0
2062,0.0
2065,30.092748843610587
2071,30.120377135839328
2077,30.040470602348145
2083,30.08485607660557
2089,30.12482590116175
2095,30.11105894721844
2101,30.153798700497288
2107,30.17348427697015
2113,30.12257609353199
2119,30.059946109832795
2125,30.14794701581991
7,-6.3
768,19.09249140665768
769,19.08018031734271
2,1, 1,21, 0, 1,22.00,23.00,WinterDesignDay
2001,30.000122415014056
2043,30.00305507866191
2049,30.421474553256507
2051,0.0
2054,0.0
2057,30.151249093839924
2059,0.0
2062,0.0
2065,30.092748843610587
2071,30.120377135839328
2077,30.040470602348145
2083,30.08485607660557
2089,30.12482590116175
2095,30.11105894721844
2101,30.258370921404646
2107,30.039458705868854
2113,30.12257609353199
2119,30.059946109832795
2125,30.14794701581991
7,-6.3
768,19.105879211945618
769,19.086671893255997
2,1, 1,21, 0, 1,23.00,24.00,WinterDesignDay
2001,29.99574422166248
2043,30.00305507866191
2049,30.421812675810604
2051,0.0
2054,0.0
2057,30.151249093839924
2059,0.0
2062,0.0
2065,30.092748843610587
2071,30.120377135839328
2077,30.040470602348145
2083,30.08485607660557
2089,30.12482590116175
2095,30.11105894721844
2101,30.32567069911484
2107,30.103788860577795
2113,30.12257609353199
2119,30.059946109832795
2125,30.14794701581991
7,-6.3
768,19.115211324205295
769,19.089814316338086
2,1, 1,21, 0, 1,24.00,25.00,WinterDesignDay
2001,30.01136306706457
2043,30.00305507866191
2049,30.42210964861361
2051,0.0
2054,0.0
2057,30.151249093839924
2059,0.0
2062,0.0
2065,30.092748843610587
2071,30.120377135839328
2077,30.040470602348145
2083,30.08485607660557
2089,30.12482590116175
2095,30.11105894721844
2101,30.345223560700075
2107,30.103788860577795
2113,30.12257609353199
2119,30.059946109832795
2125,30.14794701581991
7,-6.3
768,19.12069450160338
769,19.089938045731818
2,1, 1,21, 0, 1,25.00,26.00,WinterDesignDay
2001,30.026356922331705
2043,30.00305507866191
2049,30.422361677165488
2051,0.0
2054,0.0
2057,30.151249093839924
2059,0.0
2062,0.0
2065,30.092748843610587
2071,30.120377135839328
2077,30.040470602348145
2083,30.037655716206339
2089,30.12482590116175
2095,30.11105894721844
2101,30.31276945329297
2107,30.103788860577795
2113,30.12257609353199
2119,30.059946109832795
2125,30.14794701581991
7,-6.3
768,19.12269669149396
769,19.087409114953315
2,1, 1,21, 0, 1,26.00,27.00,WinterDesignDay
2001,30.039761702820625
2043,30.00305507866191
2049,30.42256709614509
2051,0.0
2054,0.0
2057,30.151249093839924
2059,0.0
2062,0.0
2065,30.092748843610587
2071,30.120377135839328
2077,30.040470602348145
2083,30.152141348776568
2089,30.12482590116175
2095,30.11105894721844
2101,30.22883403699962
2107,30.103788860577795
2113,30.12257609353199
2119,30.059946109832795
2125,30.14794701581991
7,-6.3
768,19.12163747370067
769,19.082584494515243
2,1, 1,21, 0, 1,27.00,28.00,WinterDesignDay
2001,30.050862512644696
2043,30.00305507866191
2049,30.422726358091088
2051,0.0
2054,0.0
2057,30.151249093839924
2059,0.0
2062,0.0
2065,30.092748843610587
2071,30.120377135839328
2077,30.040470602348145
2083,30.251337171193037
2089,30.12482590116175
2095,30.11105894721844
2101,30.09683289694018
2107,30.103788860577795
2113,30.12257609353199
2119,30.059946109832795
2125,30.14794701581991
7,-6.3
768,19.11793055893869
769,19.075791930631007
2,1, 1,21, 0, 1,28.00,29.00,WinterDesignDay
2001,30.059259431709334
2043,30.00305507866191
2049,30.422841927342146
2051,0.0
2054,0.0
2057,30.151249093839924
2059,0.0
2062,0.0
2065,30.092748843610587
2071,30.120377135839328
2077,30.040470602348145
2083,30.322921555584914
2089,30.12482590116175
2095,30.11105894721844
2101,30.166184199706053
2107,30.103788860577795
2113,30.12257609353199
2119,29.926725861882109
2125,30.14794701581991
7,-6.3
768,19.111957523084564
769,19.06732265244308
2,1, 1,21, 0, 1,29.00,30.00,WinterDesignDay
2001,30.064815490623898
2043,30.00305507866191
2049,30.422918103870804
2051,0.0
2054,0.0
2057,30.151249093839924
2059,0.0
2062,0.0
2065,30.092748843610587
2071,29.950247712156643
2077,30.040470602348145
2083,30.358663059714467
2089,30.12482590116175
2095,30.11105894721844
2101,30.166184199706053
2107,30.103788860577795
2113,30.12257609353199
2119,30.031207656304216
2125,30.14794701581991
7,-6.3
768,19.104057970900017
769,19.05743039884902
2,1, 1,21, 0, 1,30.00,31.00,WinterDesignDay
2001,30.067572072842137
2043,30.00305507866191
2049,30.42296079112194
2051,0.0
2054,0.0
2057,30.151249093839924
2059,0.0
2062,0.0
2065,30.092748843610587
2071,30.0763548854902
2077,30.040470602348145
2083,30.355105483429278
2089,30.12482590116175
2095,30.11105894721844
2101,30.166184199706053
2107,30.103788860577795
2113,30.12257609353199
2119,30.130426030140936
2125,30.14794701581991
7,-6.3
768,19.094527782126
769,19.046333447517278
2,1, 1,21, 0, 1,31.00,32.00,WinterDesignDay
2001,30.067675838692379
2043,30.00305507866191
2049,30.422977205758384
2051,0.0
2054,0.0
2057,30.151249093839924
2059,0.0
2062,0.0
2065,30.092748843610587
2071,30.19600695459111
2077,30.040470602348145
2083,30.312465641721013
2089,30.12482590116175
2095,29.939373216493946
2101,30.166184199706053
2107,30.103788860577795
2113,30.12257609353199
2119,30.21572561274952
2125,30.14794701581991
7,-6.3
768,19.08362121750121
769,19.034217989430858
2,1, 1,21, 0, 1,32.00,33.00,WinterDesignDay
2001,30.06532829273763
2043,30.00305507866191
2049,30.422975548254454
2051,0.0
2054,0.0
2057,30.151249093839924
2059,0.0
2062,0.0
2065,30.092748843610587
2071,30.297896842244147
2077,30.040470602348145
2083,30.233175647588916
2089,30.12482590116175
2095,30.0452843199232
2101,30.166184199706053
2107,30.103788860577795
2113,30.12257609353199
2119,30.281218127420727
2125,30.14794701581991
7,-6.3
768,19.071554781916
769,19.021241979358054
2,1, 1,21, 0, 1,33.00,34.00,WinterDesignDay
2001,30.060754540611297
2043,30.00305507866191
2049,30.422964649030779
2051,0.0
2054,0.0
2057,30.151249093839924
2059,0.0
2062,0.0
2065,30.092748843610587
2071,30.37440906901796
2077,29.971905919422374
2083,30.120740932569995
2089,30.12482590116175
2095,30.142287355754936
2101,30.166184199706053
2107,30.103788860577795
2113,30.12257609353199
2119,30.324182247035706
2125,30.14794701581991
7,-6.3
768,19.058511738737857
769,19.007538983992658
2,1, 1,21, 0, 1,34.00,35.00,WinterDesignDay
2001,30.054184830502569
2043,30.00305507866191
2049,30.422953611795334
2051,0.0
2054,0.0
2057,30.151249093839924
2059,0.0
2062,0.0
2065,30.092748843610587
2071,30.42211169823815
2077,30.13351186966288
2083,29.9790309388817
2089,30.12482590116175
2095,30.220554451027906
2101,30.166184199706053
2107,30.103788860577795
2113,30.12257609353199
2119,30.344319226737409
2125,30.14794701581991
7,-6.3
768,19.04464666388978
769,18.99322177285759
2,1, 1,21, 0, 1,35.00,36.00,WinterDesignDay
2001,30.045843849201046
2043,30.00305507866191
2049,30.422951463034307
2051,24367.33851044351
2054,0.0
2057,30.012409159603928
2059,0.0
2062,0.0
2065,30.092748843610587
2071,30.440748997812468
2077,30.272685471756323
2083,30.035875333417935
2089,30.12482590116175
2095,30.27351984839829
2101,30.166184199706053
2107,30.103788860577795
2113,30.12257609353199
2119,30.342796182888184
2125,30.14794701581991
7,-6.3
768,19.030089708885023
769,18.9790068684058
2,1, 1,21, 0, 1,36.00,37.00,WinterDesignDay
2001,30.035944658260765
2043,30.00305507866191
2049,30.422966813171788
2051,24597.21931335855
2054,0.0
2057,30.154558204121835
2059,0.0
2062,0.0
2065,30.092748843610587
2071,30.43196566803935
2077,30.372237322306558
2083,30.035875333417935
2089,30.12482590116175
2095,30.298353176648694
2101,30.166184199706053
2107,30.103788860577795
2113,30.12257609353199
2119,30.32150225946901
2125,30.14794701581991
7,-6.3
768,19.014950419123936
769,18.96628525832289
2,1, 1,21, 0, 1,37.00,38.00,WinterDesignDay
2001,30.024685482175149
2043,30.00305507866191
2049,30.423007512121207
2051,24802.950836222415
2054,0.0
2057,30.28177430495093
2059,0.0
2062,0.0
2065,30.092748843610587
2071,30.398323448947406
2077,30.420805493550828
2083,30.035875333417935
2089,30.12482590116175
2095,30.295066061752256
2101,30.166184199706053
2107,30.103788860577795
2113,30.12257609353199
2119,30.282586779103985
2125,30.14794701581991
7,-6.3
768,18.99932105757078
769,18.95642503249462
2,1, 1,21, 0, 1,38.00,39.00,WinterDesignDay
2001,30.012248297570677
2043,30.00305507866191
2049,30.423080315670885
2051,24962.408582703483
2054,0.0
2057,30.380376563233626
2059,19458.860842250753
2062,0.0
2065,29.937729186857106
2071,30.342697074644815
2077,30.413797483672075
2083,30.035875333417935
2089,30.12482590116175
2095,30.2653661096473
2101,30.166184199706053
2107,30.103788860577795
2113,30.12257609353199
2119,30.22820949682278
2125,30.14794701581991
7,-6.3
768,18.984075112030426
769,18.950338017895179
2,1, 1,21, 0, 1,39.00,40.00,WinterDesignDay
2001,29.99879856248644
2043,30.00305507866191
2049,30.423190570833076
2051,25060.846655799327
2054,0.0
2057,30.441246709228069
2059,19656.55051743074
2062,0.0
2065,30.090188642260644
2071,30.26795254706371
2077,30.351812016176095
2083,30.035875333417935
2089,30.12482590116175
2095,30.211769588673474
2101,30.166184199706053
2107,30.103788860577795
2113,30.12257609353199
2119,30.160418475876985
2125,30.14794701581991
7,-6.3
768,18.970928758808964
769,18.94840863718836
2,1, 1,21, 0, 1,40.00,41.00,WinterDesignDay
2001,30.012722497434689
2043,30.00305507866191
2049,30.423341932560566
2051,25092.048243366506
2054,0.0
2057,30.460540516296228
2059,19827.015398816628
2062,0.0
2065,30.22165217447526
2071,30.176793130031745
2077,30.238571249202108
2083,30.035875333417935
2089,30.12482590116175
2095,30.137055321141628
2101,30.166184199706053
2107,30.103788860577795
2113,30.12257609353199
2119,30.081096639830716
2125,30.14794701581991
7,-6.3
768,18.96157270053311
769,18.950617791260627
2,1, 1,21, 0, 1,41.00,42.00,WinterDesignDay
2001,30.012722497434689
2043,30.00305507866191
2049,30.423536134987257
2051,25056.322212733125
2054,0.0
2057,30.43844897557358
2059,19948.332644547474
2062,0.0
2065,30.31521275723378
2071,30.07169410381763
2077,30.0793091760716
2083,30.035875333417935
2089,30.12482590116175
2095,30.04397418200878
2101,30.166184199706053
2107,30.103788860577795
2113,30.12257609353199
2119,29.991943808476348
2125,30.14794701581991
7,-6.3
768,18.957126861724008
769,18.956704127817777
2,1, 1,21, 0, 1,42.00,43.00,WinterDesignDay
2001,30.012722497434689
2043,30.00305507866191
2049,30.423772830313955
2051,24957.895104811723
2054,0.0
2057,30.37758561000208
2059,20005.980523962244
2062,0.0
2065,30.359671145324826
2071,29.954882492809529
2077,30.147121597060257
2083,30.035875333417935
2089,30.12482590116175
2095,29.935111192944395
2101,30.166184199706053
2107,30.103788860577795
2113,30.12257609353199
2119,30.084474782720606
2125,30.14794701581991
7,-6.3
768,18.95804884125536
769,18.966289502359243
2,1, 1,21, 0, 1,43.00,44.00,WinterDesignDay
2001,30.012722497434689
2043,30.00305507866191
2049,30.424049517594509
2051,24802.882202452332
2054,0.0
2057,30.28173186458742
2059,19994.025487549898
2062,0.0
2065,30.350451350011306
2071,30.028968194509177
2077,30.147121597060257
2083,30.035875333417935
2089,30.12482590116175
2095,30.011362074312446
2101,30.166184199706053
2107,29.988664232382079
2113,30.014582867913125
2119,30.084474782720606
2125,30.003057507101386
7,-6.3
768,18.964288271802315
769,18.978956476989848
2,1, 1,21, 0, 1,44.00,45.00,WinterDesignDay
2001,30.012722497434689
2043,30.00305507866191
2049,30.424361593153539
2051,24598.034234007417
2054,0.0
2057,30.15506211828137
2059,19913.120633543247
2062,0.0
2065,30.288057044541753
2071,30.028968194509177
2077,30.147121597060257
2083,30.035875333417935
2089,30.12482590116175
2095,30.011362074312446
2101,30.166184199706053
2107,30.107590964005796
2113,30.141872798725378
2119,30.084474782720606
2125,30.13290896527847
7,-6.3
768,18.975488976902576
769,18.99428981857929
2,1, 1,21, 0, 1,45.00,46.00,WinterDesignDay
2001,30.012722497434689
2043,30.00305507866191
2049,30.42470254217157
2051,24350.0662727801
2054,0.0
2057,30.00172870238694
2059,19767.884396984704
2062,0.0
2065,30.176049993539139
2071,30.028968194509177
2077,30.147121597060257
2083,30.035875333417935
2089,30.046309538432646
2095,30.011362074312446
2101,30.166184199706053
2107,30.213620091214389
2113,30.250531870231226
2119,30.084474782720606
2125,30.243477643512887
7,-6.3
768,18.9911465535011
769,19.01189652579181
2,1, 1,21, 0, 1,46.00,47.00,WinterDesignDay
2001,30.012722497434689
2043,30.00305507866191
2049,30.425064259287848
2051,0.0
2054,0.0
2057,30.0571018142071
2059,19564.85722338795
2062,0.0
2065,30.019474227553894
2071,30.028968194509177
2077,30.147121597060257
2083,30.035875333417935
2089,30.16898981302358
2095,30.011362074312446
2101,30.166184199706053
2107,30.29547536220359
2113,30.326269889294726
2119,30.084474782720606
2125,30.319991781855987
7,-6.3
768,19.01070589609007
769,19.030726410682264
2,1, 1,21, 0, 1,47.00,48.00,WinterDesignDay
2001,30.012722497434689
2043,30.00305507866191
2049,30.425437474610104
2051,0.0
2054,0.0
2057,30.0571018142071
2059,0.0
2062,0.0
2065,30.088534464989004
2071,30.028968194509177
2077,30.147121597060257
2083,30.035875333417935
2089,30.270555502917277
2095,30.011362074312446
2101,30.166184199706053
2107,30.3455312409855
2113,30.359485036073015
2119,30.084474782720606
2125,30.35252957059507
7,-6.3
768,19.032730337503677
769,19.049154041673565
2,1, 1,21, 0, 1,48.00,49.00,WinterDesignDay
2001,30.012722497434689
2043,30.00305507866191
2049,30.425812262935954
2051,0.0
2054,0.0
2057,30.0571018142071
2059,0.0
2062,0.0
2065,30.088534464989004
2071,30.028968194509177
2077,30.147121597060257
2083,30.035875333417935
2089,30.335483140572316
2095,30.011362074312446
2101,30.166184199706053
2107,30.360443100697617
2113,30.34609414530252
2119,30.084474782720606
2125,30.33687772278741
7,-6.3
768,19.055049213573406
769,19.065622239521333
2,1, 1,21, 0, 1,49.00,50.00,WinterDesignDay
2001,30.012722497434689
2043,30.00305507866191
2049,30.426178606962748
2051,0.0
2054,0.0
2057,30.0571018142071
2059,0.0
2062,0.0
2065,30.088534464989004
2071,30.028968194509177
2077,30.147121597060257
2083,30.035875333417935
2089,30.35346413081104
2095,30.011362074312446
2101,30.166184199706053
2107,30.34017779752378
2113,30.28629144998867
2119,30.084474782720606
2125,30.27324800267552
7,-6.3
768,19.07558053996216
769,19.07907488680036
2,1, 1,21, 0, 1,50.00,51.00,WinterDesignDay
2001,30.012722497434689
2043,30.00305507866191
2049,30.426526971884298
2051,0.0
2054,0.0
2057,30.0571018142071
2059,0.0
2062,0.0
2065,30.088534464989004
2071,30.028968194509177
2077,30.147121597060257
2083,30.035875333417935
2089,30.32029406756667
2095,30.011362074312446
2101,30.166184199706053
2107,30.286720424475385
2113,30.182881830536528
2119,30.084474782720606
2125,30.16455388290927
7,-6.3
768,19.092887859884294
769,19.089027331180895
2,1, 1,21, 0, 1,51.00,52.00,WinterDesignDay
2001,30.012722497434689
2043,30.00305507866191
2049,30.426848841540097
2051,0.0
2054,0.0
2057,30.0571018142071
2059,0.0
2062,0.0
2065,30.088534464989004
2071,30.028968194509177
2077,30.147121597060257
2083,30.035875333417935
2089,30.236472210506947
2095,30.011362074312446
2101,29.97470309966663
2107,30.203055371955324
2113,30.039965144417598
2119,30.084474782720606
2125,30.01505028690806
7,-6.3
768,19.10627318774897
769,19.095430609444713
2,1, 1,21, 0, 1,52.00,53.00,WinterDesignDay
2001,30.012722497434689
2043,30.00305507866191
2049,30.427137168775855
2051,0.0
2054,0.0
2057,30.0571018142071
2059,0.0
2062,0.0
2065,30.088534464989004
2071,30.028968194509177
2077,30.147121597060257
2083,30.035875333417935
2089,30.1053402330675
2095,30.011362074312446
2101,30.098144074373655
2107,30.09252817145572
2113,30.11813676722422
2119,30.084474782720606
2125,30.09097349450837
7,-6.3
768,19.11560435530506
769,19.09849427439884
2,1, 1,21, 0, 1,53.00,54.00,WinterDesignDay
2001,30.012722497434689
2043,30.00305507866191
2049,30.427386708489619
2051,0.0
2054,0.0
2057,30.0571018142071
2059,0.0
2062,0.0
2065,30.088534464989004
2071,30.028968194509177
2077,30.147121597060257
2083,30.035875333417935
2089,29.9316219803541
2095,30.011362074312446
2101,30.200476595055304
2107,29.958497687785653
2113,30.11813676722422
2119,30.084474782720606
2125,30.09097349450837
7,-6.3
768,19.12108805398947
769,19.098548075251249
2,1, 1,21, 0, 1,54.00,55.00,WinterDesignDay
2001,30.012722497434689
2043,30.00305507866191
2049,30.427594220995038
2051,0.0
2054,0.0
2057,30.0571018142071
2059,0.0
2062,0.0
2065,30.088534464989004
2071,30.028968194509177
2077,30.147121597060257
2083,30.035875333417935
2089,30.00182872084082
2095,30.011362074312446
2101,30.265918506245247
2107,30.022827842494594
2113,30.11813676722422
2119,30.084474782720606
2125,30.09097349450837
7,-6.3
768,19.123092081165394
769,19.095956996560515
2,1, 1,21, 0, 1,55.00,56.00,WinterDesignDay
2001,30.012722497434689
2043,30.00305507866191
2049,30.42775855008347
2051,0.0
2054,0.0
2057,30.0571018142071
2059,0.0
2062,0.0
2065,30.088534464989004
2071,30.028968194509177
2077,30.147121597060257
2083,30.035875333417935