Program Version,EnergyPlus, Version 9.4.0-998c4b761e, YMD=2021.06.24 02:30
1,5,Environment Title[],Latitude[deg],Longitude[deg],Time Zone[],Elevation[m]
2,8,Day of Simulation[],Month[],Day of Month[],DST Indicator[1=yes 0=no],Hour[],StartMinute[],EndMinute[],DayType
3,5,Cumulative Day of Simulation[],Month[],Day of Month[],DST Indicator[1=yes 0=no],DayType  ! When Daily Meters Requested
4,2,Cumulative Days of Simulation[],Month[]  ! When Monthly Meters Requested
5,1,Cumulative Days of Simulation[] ! When Run Period Meters Requested
6,1,Calendar Year of Simulation[] ! When Annual Meters Requested
59,1,Electricity:Facility [J] !Hourly
1716,1,ElectricityNet:Facility [J] !Hourly
95,1,InteriorLights:Electricity [J] !Hourly
512,1,InteriorEquipment:Electricity [J] !Hourly
End of Data Dictionary
1,ATLANTA-HARTSFIELD.JACKSON.INTL.AP_GA_USA ANN HTG 99.6% CONDNS DB,  41.98, -87.92,  -6.00, 201.00
2,1, 1,21, 0, 1, 0.00,60.00,WinterDesignDay
59,29989065.203772557
95,0.0
512,0.0
1716,29989065.203772557
2,1, 1,21, 0, 2, 0.00,60.00,WinterDesignDay
59,30007065.203772557
95,0.0
512,0.0
1716,30007065.203772557
2,1, 1,21, 0, 3, 0.00,60.00,WinterDesignDay
59,30049065.203772557
95,0.0
512,0.0
1716,30049065.203772557
2,1, 1,21, 0, 4, 0.00,60.00,WinterDesignDay
59,29947065.203772557
95,0.0
512,0.0
1716,29947065.203772557
2,1, 1,21, 0, 5, 0.00,60.00,WinterDesignDay
59,29965065.203772557
95,0.0
512,0.0
1716,29965065.203772557
2,1, 1,21, 0, 6, 0.00,60.00,WinterDesignDay
59,29965065.203772557
95,0.0
512,0.0
1716,29965065.203772557
2,1, 1,21, 0, 7, 0.00,60.00,WinterDesignDay
59,39599325.20377252
95,0.0
512,0.0
1716,39599325.203772548
2,1, 1,21, 0, 8, 0.00,60.00,WinterDesignDay
59,27311535.203772557
95,0.0
512,0.0
1716,27311535.20377256
2,1, 1,21, 0, 9, 0.00,60.00,WinterDesignDay
59,21305925.203772557
95,0.0
512,0.0
1716,21305925.203772557
2,1, 1,21, 0,10, 0.00,60.00,WinterDesignDay
59,21263925.203772557
95,0.0
512,0.0
1716,21263925.203772557
2,1, 1,21, 0,11, 0.00,60.00,WinterDesignDay
59,21275925.203772557
95,0.0
512,0.0
1716,21275925.203772557
2,1, 1,21, 0,12, 0.00,60.00,WinterDesignDay
59,21299925.203772557
95,0.0
512,0.0
1716,21299925.203772557
2,1, 1,21, 0,13, 0.00,60.00,WinterDesignDay
59,21245925.203772557
95,0.0
512,0.0
1716,21245925.203772557
2,1, 1,21, 0,14, 0.00,60.00,WinterDesignDay
59,21275925.203772557
95,0.0
512,0.0
1716,21275925.203772557
2,1, 1,21, 0,15, 0.00,60.00,WinterDesignDay
59,21299925.203772557
95,0.0
512,0.0
1716,21299925.203772557
2,1, 1,21, 0,16, 0.00,60.00,WinterDesignDay
59,21269925.203772557
95,0.0
512,0.0
1716,21269925.203772557
2,1, 1,21, 0,17, 0.00,60.00,WinterDesignDay
59,25698585.203772557
95,0.0
512,0.0
1716,25698585.203772557
2,1, 1,21, 0,18, 0.00,60.00,WinterDesignDay
59,40133325.20377252
95,0.0
512,0.0
1716,40133325.203772578
2,1, 1,21, 0,19, 0.00,60.00,WinterDesignDay
59,40895325.203772518
95,0.0
512,0.0
1716,40895325.203772548
2,1, 1,21, 0,20, 0.00,60.00,WinterDesignDay
59,32492445.203772557
95,0.0
512,0.0
1716,32492445.203772557
2,1, 1,21, 0,21, 0.00,60.00,WinterDesignDay
59,32462445.203772557
95,0.0
512,0.0
1716,32462445.203772557
2,1, 1,21, 0,22, 0.00,60.00,WinterDesignDay
59,32486445.203772557
95,0.0
512,0.0
1716,32486445.203772557
2,1, 1,21, 0,23, 0.00,60.00,WinterDesignDay
59,32540445.203772557
95,0.0
512,0.0
1716,32540445.203772557
2,1, 1,21, 0,24, 0.00,60.00,WinterDesignDay
59,32552445.203772557
95,0.0
512,0.0
1716,32552445.203772557
1,ATLANTA-HARTSFIELD.JACKSON.INTL.AP_GA_USA ANN CLG .4% CONDNS DB=>MWB,  41.98, -87.92,  -6.00, 201.00
2,1, 7,21, 0, 1, 0.00,60.00,SummerDesignDay
59,421627090.77084276
95,152517470.7542746
512,224813060.55296675
1716,421627090.7708422
2,1, 7,21, 0, 2, 0.00,60.00,SummerDesignDay
59,421567090.77084276
95,152517470.7542746
512,224813060.55296675
1716,421567090.77084216
2,1, 7,21, 0, 3, 0.00,60.00,SummerDesignDay
59,421561090.77084276
95,152517470.7542746
512,224813060.55296675
1716,421561090.77084216
2,1, 7,21, 0, 4, 0.00,60.00,SummerDesignDay
59,421537090.77084276
95,152517470.7542746
512,224813060.55296675
1716,421537090.77084216
2,1, 7,21, 0, 5, 0.00,60.00,SummerDesignDay
59,417857297.9524686
95,151903095.9359005
512,224813060.55296675
1716,417857297.952468
2,1, 7,21, 0, 6, 0.00,60.00,SummerDesignDay
59,389655560.23153027
95,128071818.04907707
512,224813060.55296675
1716,389655560.23153027
2,1, 7,21, 0, 7, 0.00,60.00,SummerDesignDay
59,384134773.6453392
95,120497854.10498229
512,224813060.55296675
1716,384134773.6453392
2,1, 7,21, 0, 8, 0.00,60.00,SummerDesignDay
59,387327296.8156631
95,119991185.40467149
512,224813060.55296675
1716,387327296.81566306
2,1, 7,21, 0, 9, 0.00,60.00,SummerDesignDay
59,387457272.6485502
95,119991185.40467149
512,224813060.55296675
1716,387457272.6485502
2,1, 7,21, 0,10, 0.00,60.00,SummerDesignDay
59,388201149.0316845
95,119991185.40467149
512,224813060.55296675
1716,388201149.0316845
2,1, 7,21, 0,11, 0.00,60.00,SummerDesignDay
59,388521052.956366
95,119991185.40467149
512,224813060.55296675
1716,388521052.956366
2,1, 7,21, 0,12, 0.00,60.00,SummerDesignDay
59,388288048.1223597
95,119991185.40467149
512,224813060.55296675
1716,388288048.1223597
2,1, 7,21, 0,13, 0.00,60.00,SummerDesignDay
59,388447985.2467321
95,119991185.40467149
512,224813060.55296675
1716,388447985.24673208
2,1, 7,21, 0,14, 0.00,60.00,SummerDesignDay
59,389148603.425843
95,119991185.40467149
512,224813060.55296675
1716,389148603.425843
2,1, 7,21, 0,15, 0.00,60.00,SummerDesignDay
59,389462359.260942
95,119991185.40467149
512,224813060.55296675
1716,389462359.260942
2,1, 7,21, 0,16, 0.00,60.00,SummerDesignDay
59,389059059.2039685
95,119991185.40467149
512,224813060.55296675
1716,389059059.2039685
2,1, 7,21, 0,17, 0.00,60.00,SummerDesignDay
59,388112650.6978308
95,119991185.40467149
512,224813060.55296675
1716,388112650.6978308
2,1, 7,21, 0,18, 0.00,60.00,SummerDesignDay
59,387624497.01339158
95,120633945.22274417
512,224813060.55296675
1716,387624497.01339158
2,1, 7,21, 0,19, 0.00,60.00,SummerDesignDay
59,396165900.9129942
95,130861359.31742129
512,224813060.55296675
1716,396165900.9129942
2,1, 7,21, 0,20, 0.00,60.00,SummerDesignDay
59,424323243.29454579
95,152399856.5668155
512,224813060.55296675
1716,424323243.2945457
2,1, 7,21, 0,21, 0.00,60.00,SummerDesignDay
59,427432229.38859567
95,152517470.7542746
512,224813060.55296675
1716,427432229.38859567
2,1, 7,21, 0,22, 0.00,60.00,SummerDesignDay
59,427505322.77162328
95,152517470.7542746
512,224813060.55296675
1716,427505322.77162328
2,1, 7,21, 0,23, 0.00,60.00,SummerDesignDay
59,424478470.77084276
95,152517470.7542746
512,224813060.55296675
1716,424478470.7708422
2,1, 7,21, 0,24, 0.00,60.00,SummerDesignDay
59,424472470.77084276
95,152517470.7542746
512,224813060.55296675
1716,424472470.7708422
1,RUNPERIOD 1,  41.98, -87.92,  -6.00, 201.00
2,1, 6, 1, 1, 1, 0.00,60.00,Monday
59,66318840.919103879
95,7625873.53771374
512,44533202.00181081
1716,66318840.919103879
2,1, 6, 1, 1, 2, 0.00,60.00,Monday
59,73731658.72316928
95,7625873.53771374
512,44533202.00181081
1716,73731658.72316928
2,1, 6, 1, 1, 3, 0.00,60.00,Monday
59,74173706.8292908
95,7625873.53771374
512,44533202.00181081
1716,74173706.8292908
2,1, 6, 1, 1, 4, 0.00,60.00,Monday
59,76783995.46601963
95,7625873.53771374
512,44533202.00181081
1716,76783995.46601963
2,1, 6, 1, 1, 5, 0.00,60.00,Monday
59,79360364.49491899
95,15182926.566612972
512,44533202.00181081
1716,79360364.49491899
2,1, 6, 1, 1, 6, 0.00,60.00,Monday
59,93581346.30983004
95,11883928.064228418
512,55180531.87831209
1716,93581346.30983003
2,1, 6, 1, 1, 7, 0.00,60.00,Monday
59,159160388.09367524
95,31926475.21330109
512,95796493.41677362
1716,159160388.09367527
2,1, 6, 1, 1, 8, 0.00,60.00,Monday
59,332087787.49449047
95,93191992.01275133
512,204227663.7591696
1716,332087787.4944904
2,1, 6, 1, 1, 9, 0.00,60.00,Monday
59,303141882.6182486
95,93124323.85391505
512,174055806.61631225
1716,303141882.6182486
2,1, 6, 1, 1,10, 0.00,60.00,Monday
59,297574240.5722373
95,93124323.85391505
512,167093070.3525762
1716,297574240.5722373
2,1, 6, 1, 1,11, 0.00,60.00,Monday
59,304541340.83762046
95,93124323.85391505
512,174055806.61631225
1716,304541340.8376205
2,1, 6, 1, 1,12, 0.00,60.00,Monday
59,307409066.62927606
95,93124323.85391505
512,177667514.30607493
1716,307409066.62927606
2,1, 6, 1, 1,13, 0.00,60.00,Monday
59,310255205.63680306
95,93124323.85391505
512,179858086.83609239
1716,310255205.63680306
2,1, 6, 1, 1,14, 0.00,60.00,Monday
59,297868179.9034176
95,93124323.85391505
512,167093070.3525762
1716,297868179.90341767
2,1, 6, 1, 1,15, 0.00,60.00,Monday
59,297982091.979521
95,93124323.85391505
512,167093070.3525762
1716,297982091.979521
2,1, 6, 1, 1,16, 0.00,60.00,Monday
59,308980827.40709748
95,93124323.85391505
512,177537174.74818046
1716,308980827.40709748
2,1, 6, 1, 1,17, 0.00,60.00,Monday
59,228730921.53861503
95,51840329.734175968
512,140923939.57316477
1716,228730921.53861503
2,1, 6, 1, 1,18, 0.00,60.00,Monday
59,134686676.273813
95,31749749.592883368
512,69106004.40578471
1716,134686676.273813
2,1, 6, 1, 1,19, 0.00,60.00,Monday
59,126570611.84334593
95,34101110.27107747
512,59822356.054136309
1716,126570611.84334593
2,1, 6, 1, 1,20, 0.00,60.00,Monday
59,125804992.50865805
95,26101884.990921104
512,59822356.054136309
1716,125804992.50865805
2,1, 6, 1, 1,21, 0.00,60.00,Monday
59,116755497.29236196
95,26303943.895732464
512,55180531.87831209
1716,116755497.29236196
2,1, 6, 1, 1,22, 0.00,60.00,Monday
59,106347910.19346783
95,13151971.947866232
512,55180531.87831209
1716,106347910.19346783
2,1, 6, 1, 1,23, 0.00,60.00,Monday
59,99675924.2195347
95,6575985.973933116
512,55180531.87831209
1716,99675924.21953468
2,1, 6, 1, 1,24, 0.00,60.00,Monday
59,85846957.58844951
95,7625873.53771374
512,44533202.00181081
1716,85846957.58844951
2,2, 6, 2, 1, 1, 0.00,60.00,Tuesday
59,65010696.60073939
95,7625873.53771374
512,44533202.00181081
1716,65010696.60073939
2,2, 6, 2, 1, 2, 0.00,60.00,Tuesday
59,71987466.29868324
95,7625873.53771374
512,44533202.00181081
1716,71987466.29868324
2,2, 6, 2, 1, 3, 0.00,60.00,Tuesday
59,67626985.23746836
95,7625873.53771374
512,44533202.00181081
1716,67626985.23746836
2,2, 6, 2, 1, 4, 0.00,60.00,Tuesday
59,66754889.02522535
95,7625873.53771374
512,44533202.00181081
1716,66754889.02522535
2,2, 6, 2, 1, 5, 0.00,60.00,Tuesday
59,76566501.15493612
95,14782822.757237615
512,44533202.00181081
1716,76566501.15493612
2,2, 6, 2, 1, 6, 0.00,60.00,Tuesday
59,92617721.0312499
95,10750350.8917697
512,55180531.87831209
1716,92617721.0312499
2,2, 6, 2, 1, 7, 0.00,60.00,Tuesday
59,159516586.28438054
95,31266404.576764894
512,95796493.41677362
1716,159516586.28438054
2,2, 6, 2, 1, 8, 0.00,60.00,Tuesday
59,332968762.4979053
95,93124323.85391505
512,204227663.7591696
1716,332968762.4979053
2,2, 6, 2, 1, 9, 0.00,60.00,Tuesday
59,303489384.31161
95,93124323.85391505
512,174055806.61631225
1716,303489384.31161007
2,2, 6, 2, 1,10, 0.00,60.00,Tuesday
59,297497520.5822877
95,93124323.85391505
512,167093070.3525762
1716,297497520.5822877
2,2, 6, 2, 1,11, 0.00,60.00,Tuesday
59,304377145.9154042
95,93124323.85391505
512,174055806.61631225
1716,304377145.91540428
2,2, 6, 2, 1,12, 0.00,60.00,Tuesday
59,307828031.9130355
95,93124323.85391505
512,177667514.30607493
1716,307828031.91303548
2,2, 6, 2, 1,13, 0.00,60.00,Tuesday
59,310705640.49338427
95,93124323.85391505
512,179858086.83609239
1716,310705640.49338427
2,2, 6, 2, 1,14, 0.00,60.00,Tuesday
59,297653733.4169887
95,93124323.85391505
512,167093070.3525762
1716,297653733.4169887
2,2, 6, 2, 1,15, 0.00,60.00,Tuesday
59,297007071.05490407
95,93124323.85391505
512,167093070.3525762
1716,297007071.05490407
2,2, 6, 2, 1,16, 0.00,60.00,Tuesday
59,307827082.0096286
95,93133991.36789204
512,177537174.74818046
1716,307827082.0096286
2,2, 6, 2, 1,17, 0.00,60.00,Tuesday
59,227159360.02881534
95,51977637.00922194
512,140923939.57316477
1716,227159360.0288153
2,2, 6, 2, 1,18, 0.00,60.00,Tuesday
59,133045728.31059562
95,31644304.441210335
512,69106004.40578471
1716,133045728.31059562
2,2, 6, 2, 1,19, 0.00,60.00,Tuesday
59,126069801.13662823
95,34330025.61889131
512,59822356.054136309
1716,126069801.13662826
2,2, 6, 2, 1,20, 0.00,60.00,Tuesday
59,125315520.46834883
95,26150354.950611883
512,59822356.054136309
1716,125315520.46834883
2,2, 6, 2, 1,21, 0.00,60.00,Tuesday
59,115637256.7617545
95,26303943.895732464
512,55180531.87831209
1716,115637256.7617545
2,2, 6, 2, 1,22, 0.00,60.00,Tuesday
59,107019910.19346783
95,13151971.947866232
512,55180531.87831209
1716,107019910.19346783
2,2, 6, 2, 1,23, 0.00,60.00,Tuesday
59,99675924.2195347
95,6575985.973933116
512,55180531.87831209
1716,99675924.21953468
2,2, 6, 2, 1,24, 0.00,60.00,Tuesday
59,85410909.48232803
95,7625873.53771374
512,44533202.00181081
1716,85410909.48232803
End of Data
 Number of Records Written=         384
