Program Version,EnergyPlus, Version 9.5.0-de239b2e5f, YMD=2021.08.23 01:01
1,5,Environment Title[],Latitude[deg],Longitude[deg],Time Zone[],Elevation[m]
2,8,Day of Simulation[],Month[],Day of Month[],DST Indicator[1=yes 0=no],Hour[],StartMinute[],EndMinute[],DayType
3,5,Cumulative Day of Simulation[],Month[],Day of Month[],DST Indicator[1=yes 0=no],DayType  ! When Daily Report Variables Requested
4,2,Cumulative Days of Simulation[],Month[]  ! When Monthly Report Variables Requested
5,1,Cumulative Days of Simulation[] ! When Run Period Report Variables Requested
6,1,Calendar Year of Simulation[] ! When Annual Report Variables Requested
675,1,PERIMETER_TOP_ZN_3,Zone Mean Air Temperature [C] !Hourly
1748,1,PERI3_TOP_LOTEMP,Zone Radiant HVAC Heating Rate [W] !Hourly
1753,1,PERI3_TOP_LOTEMP,Zone Radiant HVAC Pump Electricity Rate [W] !Hourly
1991,1,BOILER_RADSYS,Boiler Electricity Rate [W] !Hourly
2033,1,HOT WATER LOOP HW SUPPLY PUMP2,Pump Electricity Rate [W] !Hourly
End of Data Dictionary
1,RUNPERIOD 1,  40.78, -73.97,  -5.00,  40.00
2,1, 1,20, 0, 1, 0.00,60.00,Holiday
675,21.376330058212476
1748,7965.876438246143
1753,100.0
1991,9838.389283723913
2033,78.11520512820514
2,1, 1,20, 0, 2, 0.00,60.00,Holiday
675,21.043133101127319
1748,9515.175002057531
1753,100.0
1991,11714.84752245507
2033,78.11520512820514
2,1, 1,20, 0, 3, 0.00,60.00,Holiday
675,21.031999503507497
1748,9521.124775401404
1753,100.0
1991,11758.08343622393
2033,78.11520512820514
2,1, 1,20, 0, 4, 0.00,60.00,Holiday
675,21.0630766098146
1748,9244.273587826776
1753,100.0
1991,11355.50828617386
2033,78.11520512820514
2,1, 1,20, 0, 5, 0.00,60.00,Holiday
675,21.030063270884669
1748,9392.718795888475
1753,100.0
1991,11557.233344552744
2033,78.11520512820514
2,1, 1,20, 0, 6, 0.00,60.00,Holiday
675,21.113852522067899
1748,8935.991349442937
1753,100.0
1991,11009.312111188545
2033,78.11520512820514
2,1, 1,20, 0, 7, 0.00,60.00,Holiday
675,21.18479224209431
1748,8600.45147591133
1753,100.0
1991,10566.831192354784
2033,78.11520512820514
2,1, 1,20, 0, 8, 0.00,60.00,Holiday
675,21.227917430063746
1748,8394.904178078586
1753,100.0
1991,10299.314256856545
2033,78.11520512820514
2,1, 1,20, 0, 9, 0.00,60.00,Holiday
675,21.37612829394498
1748,7746.622164919363
1753,100.0
1991,9507.73154235542
2033,78.11520512820514
2,1, 1,20, 0,10, 0.00,60.00,Holiday
675,21.605480149511345
1748,6744.514662617528
1753,100.0
1991,8241.397562495054
2033,78.11520512820514
2,1, 1,20, 0,11, 0.00,60.00,Holiday
675,21.81478654267445
1748,5932.326242440584
1753,100.0
1991,7319.88020889538
2033,78.11520512820514
2,1, 1,20, 0,12, 0.00,60.00,Holiday
675,21.99466350257789
1748,4283.564974957148
1753,80.0
1991,5186.267898412675
2033,62.492164102564107
2,1, 1,20, 0,13, 0.00,60.00,Holiday
675,21.986435774671855
1748,4332.371110524461
1753,75.0
1991,5277.007600063191
2033,58.58640384615385
2,1, 1,20, 0,14, 0.00,60.00,Holiday
675,21.98811224186422
1748,5413.494262542464
1753,95.0
1991,6625.955630118554
2033,74.20944487179489
2,1, 1,20, 0,15, 0.00,60.00,Holiday
675,21.955146379817074
1748,5798.260316237029
1753,100.0
1991,7041.508518646445
2033,78.11520512820514
2,1, 1,20, 0,16, 0.00,60.00,Holiday
675,21.88663995393937
1748,6080.226554519793
1753,100.0
1991,7416.487307638429
2033,78.11520512820514
2,1, 1,20, 0,17, 0.00,60.00,Holiday
675,21.746942409732836
1748,6683.463144064552
1753,100.0
1991,8134.198084493149
2033,78.11520512820514
2,1, 1,20, 0,18, 0.00,60.00,Holiday
675,21.580908700512525
1748,7387.933351806569
1753,100.0
1991,9080.010013096242
2033,78.11520512820514
2,1, 1,20, 0,19, 0.00,60.00,Holiday
675,21.37257305050818
1748,8238.72612030976
1753,100.0
1991,10136.831700073168
2033,78.11520512820514
2,1, 1,20, 0,20, 0.00,60.00,Holiday
675,21.231859595058258
1748,8788.534821931744
1753,100.0
1991,10813.058843996332
2033,78.11520512820514
2,1, 1,20, 0,21, 0.00,60.00,Holiday
675,21.242652369848249
1748,8655.345350623864
1753,100.0
1991,10662.626447208364
2033,78.11520512820514
2,1, 1,20, 0,22, 0.00,60.00,Holiday
675,21.384274295085218
1748,7951.185084127419
1753,100.0
1991,9786.508158590232
2033,78.11520512820514
2,1, 1,20, 0,23, 0.00,60.00,Holiday
675,21.426694685262416
1748,7722.5844447350759
1753,100.0
1991,9506.8806625746
2033,78.11520512820514
2,1, 1,20, 0,24, 0.00,60.00,Holiday
675,21.459272267893934
1748,7641.2602962752139
1753,100.0
1991,9399.636433512896
2033,78.11520512820514
2,2, 1,21, 0, 1, 0.00,60.00,Tuesday
675,21.539292827653207
1748,7281.488842182711
1753,100.0
1991,8923.280660413244
2033,78.11520512820514
2,2, 1,21, 0, 2, 0.00,60.00,Tuesday
675,21.457900851833409
1748,7705.746472694185
1753,100.0
1991,9461.501100011714
2033,78.11520512820514
2,2, 1,21, 0, 3, 0.00,60.00,Tuesday
675,21.461781314379555
1748,7686.197398331418
1753,100.0
1991,9498.892462297283
2033,78.11520512820514
2,2, 1,21, 0, 4, 0.00,60.00,Tuesday
675,21.484161027159606
1748,7590.116806702055
1753,100.0
1991,9292.27837420669
2033,78.11520512820514
2,2, 1,21, 0, 5, 0.00,60.00,Tuesday
675,21.509832841157139
1748,7482.064573859416
1753,100.0
1991,9184.854748154987
2033,78.11520512820514
2,2, 1,21, 0, 6, 0.00,60.00,Tuesday
675,21.553947629283046
1748,7310.352736888813
1753,100.0
1991,8948.667416057018
2033,78.11520512820514
2,2, 1,21, 0, 7, 0.00,60.00,Tuesday
675,21.866228025849418
1748,5997.711101774583
1753,100.0
1991,7291.837923504858
2033,78.11520512820514
2,2, 1,21, 0, 8, 0.00,60.00,Tuesday
675,19.598051583792985
1748,16441.88873933259
1753,100.0
1991,19803.180078620553
2033,78.11520512820514
2,2, 1,21, 0, 9, 0.00,60.00,Tuesday
675,20.023819971396333
1748,13996.365628950982
1753,100.0
1991,17817.215592767945
2033,78.11520512820514
2,2, 1,21, 0,10, 0.00,60.00,Tuesday
675,20.358945574133043
1748,12115.977570244428
1753,100.0
1991,14952.439923654229
2033,78.11520512820514
2,2, 1,21, 0,11, 0.00,60.00,Tuesday
675,20.586267213047248
1748,10867.324349863906
1753,100.0
1991,13374.77525236562
2033,78.11520512820514
2,2, 1,21, 0,12, 0.00,60.00,Tuesday
675,20.747808554042117
1748,9976.594209713656
1753,100.0
1991,12287.241083842235
2033,78.11520512820514
2,2, 1,21, 0,13, 0.00,60.00,Tuesday
675,20.721621675277637
1748,10009.06638170588
1753,100.0
1991,12332.42896703507
2033,78.11520512820514
2,2, 1,21, 0,14, 0.00,60.00,Tuesday
675,20.88663984789934
1748,9170.191777822798
1753,100.0
1991,11309.558052674702
2033,78.11520512820514
2,2, 1,21, 0,15, 0.00,60.00,Tuesday
675,20.879362380061744
1748,9143.90642664028
1753,100.0
1991,11274.962178028285
2033,78.11520512820514
2,2, 1,21, 0,16, 0.00,60.00,Tuesday
675,20.789241413540418
1748,9557.199270569898
1753,100.0
1991,11767.503613009323
2033,78.11520512820514
2,2, 1,21, 0,17, 0.00,60.00,Tuesday
675,20.773002945931887
1748,9621.004411949258
1753,100.0
1991,11857.751144062946
2033,78.11520512820514
2,2, 1,21, 0,18, 0.00,60.00,Tuesday
675,20.435667345548496
1748,11163.349640777322
1753,100.0
1991,13742.942381290364
2033,78.11520512820514
2,2, 1,21, 0,19, 0.00,60.00,Tuesday
675,20.240309877446295
1748,12038.639411311526
1753,100.0
1991,14865.244395116737
2033,78.11520512820514
2,2, 1,21, 0,20, 0.00,60.00,Tuesday
675,20.19586261816678
1748,12159.289161511715
1753,100.0
1991,15028.77105010086
2033,78.11520512820514
2,2, 1,21, 0,21, 0.00,60.00,Tuesday
675,20.15633658414601
1748,12248.468797668322
1753,100.0
1991,15170.400777949999
2033,78.11520512820514
2,2, 1,21, 0,22, 0.00,60.00,Tuesday
675,22.47956560087173
1748,783.4519079725922
1753,9.999999999999999
1991,1117.4055247174998
2033,7.81152051282051
2,2, 1,21, 0,23, 0.00,60.00,Tuesday
675,21.94351934581652
1748,4765.486948229934
1753,80.0
1991,5823.245985407867
2033,62.492164102564107
2,2, 1,21, 0,24, 0.00,60.00,Tuesday
675,21.765064762174217
1748,6431.241437835056
1753,100.0
1991,7844.160223937122
2033,78.11520512820514
2,3, 1,22, 0, 1, 0.00,60.00,Wednesday
675,21.52571006334305
1748,7479.506116235365
1753,100.0
1991,9215.422123531589
2033,78.11520512820514
2,3, 1,22, 0, 2, 0.00,60.00,Wednesday
675,21.341997635930406
1748,8225.527545658011
1753,100.0
1991,10124.036809328969
2033,78.11520512820514
2,3, 1,22, 0, 3, 0.00,60.00,Wednesday
675,21.313608191535996
1748,8298.026012332597
1753,100.0
1991,10219.305792330946
2033,78.11520512820514
2,3, 1,22, 0, 4, 0.00,60.00,Wednesday
675,21.43087081388537
1748,7666.184753495814
1753,100.0
1991,9451.954916616112
2033,78.11520512820514
2,3, 1,22, 0, 5, 0.00,60.00,Wednesday
675,21.415677472301764
1748,7698.364650247492
1753,100.0
1991,9447.1585551344
2033,78.11520512820514
2,3, 1,22, 0, 6, 0.00,60.00,Wednesday
675,21.2081744743548
1748,8597.973694804807
1753,100.0
1991,10577.419988074631
2033,78.11520512820514
2,3, 1,22, 0, 7, 0.00,60.00,Wednesday
675,21.853996976013329
1748,5885.313724610912
1753,100.0
1991,7261.015069975796
2033,78.11520512820514
2,3, 1,22, 0, 8, 0.00,60.00,Wednesday
675,19.604387459195356
1748,16271.405048421697
1753,100.0
1991,19706.441836894985
2033,78.11520512820514
2,3, 1,22, 0, 9, 0.00,60.00,Wednesday
675,19.924235908126599
1748,14378.748761347908
1753,100.0
1991,18239.93785546667
2033,78.11520512820514
2,3, 1,22, 0,10, 0.00,60.00,Wednesday
675,20.136992479607608
1748,13095.888992710708
1753,100.0
1991,16237.152554135737
2033,78.11520512820514
2,3, 1,22, 0,11, 0.00,60.00,Wednesday
675,20.36231485511461
1748,11848.85687340546
1753,100.0
1991,14684.280452888703
2033,78.11520512820514
2,3, 1,22, 0,12, 0.00,60.00,Wednesday
675,20.483789478376616
1748,11097.386841998372
1753,100.0
1991,13749.901939396159
2033,78.11520512820514
2,3, 1,22, 0,13, 0.00,60.00,Wednesday
675,20.386091535416818
1748,11479.618363360834
1753,100.0
1991,14246.901495945833
2033,78.11520512820514
2,3, 1,22, 0,14, 0.00,60.00,Wednesday
675,20.51311900137531
1748,10781.805899403293
1753,100.0
1991,13311.456164133046
2033,78.11520512820514
2,3, 1,22, 0,15, 0.00,60.00,Wednesday
675,20.506111015471885
1748,10748.115674892726
1753,100.0
1991,13278.483426724273
2033,78.11520512820514
2,3, 1,22, 0,16, 0.00,60.00,Wednesday
675,20.411753848217253
1748,11117.58632729474
1753,100.0
1991,13756.83295189178
2033,78.11520512820514
2,3, 1,22, 0,17, 0.00,60.00,Wednesday
675,20.374405279513959
1748,11264.200071481899
1753,100.0
1991,13967.381930914456
2033,78.11520512820514
2,3, 1,22, 0,18, 0.00,60.00,Wednesday
675,19.982332044666433
1748,12993.772201863778
1753,100.0
1991,16043.70076515237
2033,78.11520512820514
2,3, 1,22, 0,19, 0.00,60.00,Wednesday
675,19.73461907068723
1748,14053.655640268178
1753,100.0
1991,17411.28186632143
2033,78.11520512820514
2,3, 1,22, 0,20, 0.00,60.00,Wednesday
675,19.700487564822486
1748,14027.846416910024
1753,100.0
1991,17388.60381867826
2033,78.11520512820514
2,3, 1,22, 0,21, 0.00,60.00,Wednesday
675,19.587348447296557
1748,14356.581901966387
1753,100.0
1991,17790.265571289172
2033,78.11520512820514
2,3, 1,22, 0,22, 0.00,60.00,Wednesday
675,21.702232112916286
1748,4995.300539089776
1753,100.0
1991,6266.19200841626
2033,78.11520512820514
2,3, 1,22, 0,23, 0.00,60.00,Wednesday
675,20.26421896195203
1748,12435.513203693663
1753,100.0
1991,15224.870600802078
2033,78.11520512820514
2,3, 1,22, 0,24, 0.00,60.00,Wednesday
675,20.026842016154729
1748,13526.25860747723
1753,100.0
1991,16753.78466318841
2033,78.11520512820514
End of Data
 Number of Records Written=         360
