Program Version,EnergyPlus, Version 9.4.0-998c4b761e, YMD=2021.07.12 21:32
1,5,Environment Title[],Latitude[deg],Longitude[deg],Time Zone[],Elevation[m]
2,8,Day of Simulation[],Month[],Day of Month[],DST Indicator[1=yes 0=no],Hour[],StartMinute[],EndMinute[],DayType
3,5,Cumulative Day of Simulation[],Month[],Day of Month[],DST Indicator[1=yes 0=no],DayType  ! When Daily Meters Requested
4,2,Cumulative Days of Simulation[],Month[]  ! When Monthly Meters Requested
5,1,Cumulative Days of Simulation[] ! When Run Period Meters Requested
6,1,Calendar Year of Simulation[] ! When Annual Meters Requested
59,1,Electricity:Facility [J] !Hourly
1716,1,ElectricityNet:Facility [J] !Hourly
95,1,InteriorLights:Electricity [J] !Hourly
512,1,InteriorEquipment:Electricity [J] !Hourly
End of Data Dictionary
1,ATLANTA-HARTSFIELD.JACKSON.INTL.AP_GA_USA ANN HTG 99.6% CONDNS DB,  33.63, -84.43,  -5.00, 308.00
2,1, 1,21, 0, 1, 0.00,60.00,WinterDesignDay
59,120539101.70991628
95,0.0
512,0.0
1716,120539101.70991628
2,1, 1,21, 0, 2, 0.00,60.00,WinterDesignDay
59,120539101.70991628
95,0.0
512,0.0
1716,120539101.70991628
2,1, 1,21, 0, 3, 0.00,60.00,WinterDesignDay
59,120539101.70991628
95,0.0
512,0.0
1716,120539101.70991628
2,1, 1,21, 0, 4, 0.00,60.00,WinterDesignDay
59,120539101.70991628
95,0.0
512,0.0
1716,120539101.70991628
2,1, 1,21, 0, 5, 0.00,60.00,WinterDesignDay
59,120539101.70991628
95,0.0
512,0.0
1716,120539101.70991628
2,1, 1,21, 0, 6, 0.00,60.00,WinterDesignDay
59,120539101.70991628
95,0.0
512,0.0
1716,120539101.70991628
2,1, 1,21, 0, 7, 0.00,60.00,WinterDesignDay
59,130683361.70991628
95,0.0
512,0.0
1716,130683361.70991628
2,1, 1,21, 0, 8, 0.00,60.00,WinterDesignDay
59,126150511.70991628
95,0.0
512,0.0
1716,126150511.70991628
2,1, 1,21, 0, 9, 0.00,60.00,WinterDesignDay
59,112035961.70991628
95,0.0
512,0.0
1716,112035961.70991628
2,1, 1,21, 0,10, 0.00,60.00,WinterDesignDay
59,111999961.70991628
95,0.0
512,0.0
1716,111999961.70991628
2,1, 1,21, 0,11, 0.00,60.00,WinterDesignDay
59,111999961.70991628
95,0.0
512,0.0
1716,111999961.70991628
2,1, 1,21, 0,12, 0.00,60.00,WinterDesignDay
59,111999961.70991628
95,0.0
512,0.0
1716,111999961.70991628
2,1, 1,21, 0,13, 0.00,60.00,WinterDesignDay
59,111999961.70991628
95,0.0
512,0.0
1716,111999961.70991628
2,1, 1,21, 0,14, 0.00,60.00,WinterDesignDay
59,111999961.70991628
95,0.0
512,0.0
1716,111999961.70991628
2,1, 1,21, 0,15, 0.00,60.00,WinterDesignDay
59,111999961.70991628
95,0.0
512,0.0
1716,111999961.70991628
2,1, 1,21, 0,16, 0.00,60.00,WinterDesignDay
59,111999961.70991628
95,0.0
512,0.0
1716,111999961.70991628
2,1, 1,21, 0,17, 0.00,60.00,WinterDesignDay
59,111999961.70991628
95,0.0
512,0.0
1716,111999961.70991628
2,1, 1,21, 0,18, 0.00,60.00,WinterDesignDay
59,114561481.70991628
95,0.0
512,0.0
1716,114561481.70991628
2,1, 1,21, 0,19, 0.00,60.00,WinterDesignDay
59,130893361.70991628
95,0.0
512,0.0
1716,130893361.70991628
2,1, 1,21, 0,20, 0.00,60.00,WinterDesignDay
59,123084481.70991628
95,0.0
512,0.0
1716,123084481.70991628
2,1, 1,21, 0,21, 0.00,60.00,WinterDesignDay
59,123084481.70991628
95,0.0
512,0.0
1716,123084481.70991628
2,1, 1,21, 0,22, 0.00,60.00,WinterDesignDay
59,123084481.70991628
95,0.0
512,0.0
1716,123084481.70991628
2,1, 1,21, 0,23, 0.00,60.00,WinterDesignDay
59,123084481.70991628
95,0.0
512,0.0
1716,123084481.70991628
2,1, 1,21, 0,24, 0.00,60.00,WinterDesignDay
59,123084481.70991628
95,0.0
512,0.0
1716,123084481.70991628
1,ATLANTA-HARTSFIELD.JACKSON.INTL.AP_GA_USA ANN CLG .4% CONDNS DB=>MWB,  33.63, -84.43,  -5.00, 308.00
2,1, 7,21, 0, 1, 0.00,60.00,SummerDesignDay
59,517464530.3943631
95,152517470.7542746
512,224813060.55296675
1716,517464530.3943631
2,1, 7,21, 0, 2, 0.00,60.00,SummerDesignDay
59,523454793.41772106
95,152517470.7542746
512,224813060.55296675
1716,523454793.41772106
2,1, 7,21, 0, 3, 0.00,60.00,SummerDesignDay
59,523718793.41772106
95,152517470.7542746
512,224813060.55296675
1716,523718793.41772106
2,1, 7,21, 0, 4, 0.00,60.00,SummerDesignDay
59,523826793.41772106
95,152517470.7542746
512,224813060.55296675
1716,523826793.41772106
2,1, 7,21, 0, 5, 0.00,60.00,SummerDesignDay
59,523916793.41772106
95,152517470.7542746
512,224813060.55296675
1716,523916793.41772106
2,1, 7,21, 0, 6, 0.00,60.00,SummerDesignDay
59,521832389.176122
95,152399851.51267544
512,224813060.55296675
1716,521832389.176122
2,1, 7,21, 0, 7, 0.00,60.00,SummerDesignDay
59,486560971.5561561
95,129723979.24717574
512,224813060.55296675
1716,486560971.5561561
2,1, 7,21, 0, 8, 0.00,60.00,SummerDesignDay
59,481086918.5409429
95,120394417.54972403
512,224813060.55296675
1716,481086918.540943
2,1, 7,21, 0, 9, 0.00,60.00,SummerDesignDay
59,465695188.00138136
95,119991185.40467149
512,224813060.55296675
1716,465695188.00138136
2,1, 7,21, 0,10, 0.00,60.00,SummerDesignDay
59,465695188.00138136
95,119991185.40467149
512,224813060.55296675
1716,465695188.00138136
2,1, 7,21, 0,11, 0.00,60.00,SummerDesignDay
59,465719188.00138136
95,119991185.40467149
512,224813060.55296675
1716,465719188.00138136
2,1, 7,21, 0,12, 0.00,60.00,SummerDesignDay
59,465695188.00138136
95,119991185.40467149
512,224813060.55296675
1716,465695188.00138136
2,1, 7,21, 0,13, 0.00,60.00,SummerDesignDay
59,465695188.00138136
95,119991185.40467149
512,224813060.55296675
1716,465695188.00138136
2,1, 7,21, 0,14, 0.00,60.00,SummerDesignDay
59,465779188.00138136
95,119991185.40467149
512,224813060.55296675
1716,465779188.00138136
2,1, 7,21, 0,15, 0.00,60.00,SummerDesignDay
59,465797188.00138136
95,119991185.40467149
512,224813060.55296675
1716,465797188.00138136
2,1, 7,21, 0,16, 0.00,60.00,SummerDesignDay
59,465749188.00138136
95,119991185.40467149
512,224813060.55296675
1716,465749188.00138136
2,1, 7,21, 0,17, 0.00,60.00,SummerDesignDay
59,465767188.00138136
95,119991185.40467149
512,224813060.55296675
1716,465767188.00138136
2,1, 7,21, 0,18, 0.00,60.00,SummerDesignDay
59,465771443.76978328
95,120025441.17307365
512,224813060.55296675
1716,465771443.76978328
2,1, 7,21, 0,19, 0.00,60.00,SummerDesignDay
59,468243300.15754529
95,122515297.56083551
512,224813060.55296675
1716,468243300.15754529
2,1, 7,21, 0,20, 0.00,60.00,SummerDesignDay
59,495896456.4071946
95,146697555.81048496
512,224813060.55296675
1716,495896456.4071946
2,1, 7,21, 0,21, 0.00,60.00,SummerDesignDay
59,509257993.35098418
95,152517470.7542746
512,224813060.55296675
1716,509257993.35098418
2,1, 7,21, 0,22, 0.00,60.00,SummerDesignDay
59,509257993.35098418
95,152517470.7542746
512,224813060.55296675
1716,509257993.35098418
2,1, 7,21, 0,23, 0.00,60.00,SummerDesignDay
59,509257993.35098418
95,152517470.7542746
512,224813060.55296675
1716,509257993.35098418
2,1, 7,21, 0,24, 0.00,60.00,SummerDesignDay
59,510344138.68876656
95,152517470.7542746
512,224813060.55296675
1716,510344138.68876656
1,RUNPERIOD 1,  33.63, -84.43,  -5.00, 308.00
2,1, 7, 1, 0, 1, 0.00,60.00,Monday
59,61438502.88045609
95,7625873.53771374
512,44533202.00181081
1716,61438502.88045609
2,1, 7, 1, 0, 2, 0.00,60.00,Monday
59,70362564.79834587
95,7625873.53771374
512,44533202.00181081
1716,70362564.79834587
2,1, 7, 1, 0, 3, 0.00,60.00,Monday
59,69866783.58068528
95,7625873.53771374
512,44533202.00181081
1716,69866783.58068528
2,1, 7, 1, 0, 4, 0.00,60.00,Monday
59,74340814.53963013
95,7625873.53771374
512,44533202.00181081
1716,74340814.53963013
2,1, 7, 1, 0, 5, 0.00,60.00,Monday
59,73881033.32196972
95,7625873.53771374
512,44533202.00181081
1716,73881033.32196972
2,1, 7, 1, 0, 6, 0.00,60.00,Monday
59,85562703.9689142
95,14835019.70208967
512,44533202.00181081
1716,85562703.9689142
2,1, 7, 1, 0, 7, 0.00,60.00,Monday
59,99390332.92072059
95,10806640.641844433
512,55180531.87831209
1716,99390332.92072059
2,1, 7, 1, 0, 8, 0.00,60.00,Monday
59,262942884.31839074
95,31270023.132256438
512,95796493.41677362
1716,262942884.31839074
2,1, 7, 1, 0, 9, 0.00,60.00,Monday
59,433598964.3857819
95,93124323.85391505
512,204227663.7591696
1716,433598964.3857819
2,1, 7, 1, 0,10, 0.00,60.00,Monday
59,388071072.51396897
95,93124323.85391505
512,174055806.61631225
1716,388071072.51397
2,1, 7, 1, 0,11, 0.00,60.00,Monday
59,381108336.25023356
95,93124323.85391505
512,167093070.3525762
1716,381108336.25023356
2,1, 7, 1, 0,12, 0.00,60.00,Monday
59,388071072.51396897
95,93124323.85391505
512,174055806.61631225
1716,388071072.51397
2,1, 7, 1, 0,13, 0.00,60.00,Monday
59,391994780.2037322
95,93124323.85391505
512,177667514.30607493
1716,391994780.2037322
2,1, 7, 1, 0,14, 0.00,60.00,Monday
59,393885352.7337494
95,93124323.85391505
512,179858086.83609239
1716,393885352.7337494
2,1, 7, 1, 0,15, 0.00,60.00,Monday
59,381108336.25023356
95,93124323.85391505
512,167093070.3525762
1716,381108336.25023356
2,1, 7, 1, 0,16, 0.00,60.00,Monday
59,381118003.7642106
95,93133991.36789204
512,167093070.3525762
1716,381118003.7642106
2,1, 7, 1, 0,17, 0.00,60.00,Monday
59,392732686.7893968
95,94304569.99747429
512,177537174.74818046
1716,392732686.7893968
2,1, 7, 1, 0,18, 0.00,60.00,Monday
59,314712578.1359779
95,52897696.51907077
512,140923939.57316477
1716,314712578.1359779
2,1, 7, 1, 0,19, 0.00,60.00,Monday
59,234673519.90546377
95,33000511.074774714
512,69106004.40578471
1716,234673519.90546374
2,1, 7, 1, 0,20, 0.00,60.00,Monday
59,239334401.95689006
95,38899677.792273219
512,59822356.054136309
1716,239334401.95688979
2,1, 7, 1, 0,21, 0.00,60.00,Monday
59,235569942.060349
95,26303943.895732464
512,59822356.054136309
1716,235569942.06034897
2,1, 7, 1, 0,22, 0.00,60.00,Monday
59,112926724.50286173
95,26303943.895732464
512,55180531.87831209
1716,112926724.50286173
2,1, 7, 1, 0,23, 0.00,60.00,Monday
59,110090184.22674246
95,13151971.947866232
512,55180531.87831209
1716,110090184.22674246
2,1, 7, 1, 0,24, 0.00,60.00,Monday
59,93908355.11725895
95,6575985.973933116
512,55180531.87831209
1716,93908355.11725895
2,2, 7, 2, 0, 1, 0.00,60.00,Tuesday
59,61438502.88045609
95,7625873.53771374
512,44533202.00181081
1716,61438502.88045609
2,2, 7, 2, 0, 2, 0.00,60.00,Tuesday
59,69866783.58068533
95,7625873.53771374
512,44533202.00181081
1716,69866783.58068533
2,2, 7, 2, 0, 3, 0.00,60.00,Tuesday
59,69371002.36302474
95,7625873.53771374
512,44533202.00181081
1716,69371002.36302474
2,2, 7, 2, 0, 4, 0.00,60.00,Tuesday
59,72841470.88664852
95,7625873.53771374
512,44533202.00181081
1716,72841470.88664852
2,2, 7, 2, 0, 5, 0.00,60.00,Tuesday
59,78790845.49857503
95,7625873.53771374
512,44533202.00181081
1716,78790845.49857503
2,2, 7, 2, 0, 6, 0.00,60.00,Tuesday
59,77986931.85968346
95,15251747.07542748
512,44533202.00181081
1716,77986931.85968346
2,2, 7, 2, 0, 7, 0.00,60.00,Tuesday
59,98356040.92836914
95,12100348.64949286
512,55180531.87831209
1716,98356040.92836914
2,2, 7, 2, 0, 8, 0.00,60.00,Tuesday
59,262753445.6495105
95,31140584.46337594
512,95796493.41677362
1716,262753445.6495105
2,2, 7, 2, 0, 9, 0.00,60.00,Tuesday
59,434757109.72356429
95,93124323.85391505
512,204227663.7591696
1716,434757109.72356429
2,2, 7, 2, 0,10, 0.00,60.00,Tuesday
59,404381252.5807072
95,93124323.85391505
512,174055806.61631225
1716,404381252.5807072
2,2, 7, 2, 0,11, 0.00,60.00,Tuesday
59,397128979.9825261
95,93124323.85391505
512,167093070.3525762
1716,397128979.9825261
2,2, 7, 2, 0,12, 0.00,60.00,Tuesday
59,388071072.51396897
95,93124323.85391505
512,174055806.61631225
1716,388071072.51397
2,2, 7, 2, 0,13, 0.00,60.00,Tuesday
59,391796780.2037322
95,93124323.85391505
512,177667514.30607493
1716,391796780.2037322
2,2, 7, 2, 0,14, 0.00,60.00,Tuesday
59,393879352.7337494
95,93124323.85391505
512,179858086.83609239
1716,393879352.7337494
2,2, 7, 2, 0,15, 0.00,60.00,Tuesday
59,381108336.25023356
95,93124323.85391505
512,167093070.3525762
1716,381108336.25023356
2,2, 7, 2, 0,16, 0.00,60.00,Tuesday
59,381108336.25023356
95,93124323.85391505
512,167093070.3525762
1716,381108336.25023356
2,2, 7, 2, 0,17, 0.00,60.00,Tuesday
59,391552440.64583757
95,93124323.85391505
512,177537174.74818046
1716,391552440.64583757
2,2, 7, 2, 0,18, 0.00,60.00,Tuesday
59,313666044.19405046
95,51749162.5771431
512,140923939.57316477
1716,313666044.19405046
2,2, 7, 2, 0,19, 0.00,60.00,Tuesday
59,222935781.9846085
95,31563153.862853268
512,69106004.40578471
1716,222935781.98460827
2,2, 7, 2, 0,20, 0.00,60.00,Tuesday
59,237178374.31917275
95,37421650.15455603
512,59822356.054136309
1716,237178374.31917275
2,2, 7, 2, 0,21, 0.00,60.00,Tuesday
59,234993942.060349
95,26303943.895732464
512,59822356.054136309
1716,234993942.060349
2,2, 7, 2, 0,22, 0.00,60.00,Tuesday
59,121995442.76776983
95,26303943.895732464
512,55180531.87831209
1716,121995442.7677698
2,2, 7, 2, 0,23, 0.00,60.00,Tuesday
59,111242184.22674248
95,13151971.947866232
512,55180531.87831209
1716,111242184.22674248
2,2, 7, 2, 0,24, 0.00,60.00,Tuesday
59,96883042.42322223
95,6575985.973933116
512,55180531.87831209
1716,96883042.42322223
End of Data
 Number of Records Written=         384
