Program Version,EnergyPlus, Version 9.4.0-998c4b761e, YMD=2021.07.12 21:32
1,5,Environment Title[],Latitude[deg],Longitude[deg],Time Zone[],Elevation[m]
2,8,Day of Simulation[],Month[],Day of Month[],DST Indicator[1=yes 0=no],Hour[],StartMinute[],EndMinute[],DayType
3,5,Cumulative Day of Simulation[],Month[],Day of Month[],DST Indicator[1=yes 0=no],DayType  ! When Daily Report Variables Requested
4,2,Cumulative Days of Simulation[],Month[]  ! When Monthly Report Variables Requested
5,1,Cumulative Days of Simulation[] ! When Run Period Report Variables Requested
6,1,Calendar Year of Simulation[] ! When Annual Report Variables Requested
7,1,Environment,Site Outdoor Air Drybulb Temperature [C] !Hourly
770,1,PERIMETER_TOP_ZN_4,Zone Mean Air Temperature [C] !Hourly
2050,1,PERI1_TOP_LOTEMP,Zone Radiant HVAC Cooling Rate [W] !Hourly
2053,1,PERI1_TOP_LOTEMP,Zone Radiant HVAC Mass Flow Rate [kg/s] !Hourly
2054,1,PERI1_TOP_LOTEMP,Zone Radiant HVAC Injection Mass Flow Rate [kg/s] !Hourly
2055,1,PERI1_TOP_LOTEMP,Zone Radiant HVAC Recirculation Mass Flow Rate [kg/s] !Hourly
2056,1,PERI1_TOP_LOTEMP,Zone Radiant HVAC Inlet Temperature [C] !Hourly
2057,1,PERI1_TOP_LOTEMP,Zone Radiant HVAC Outlet Temperature [C] !Hourly
2063,1,PERI2_TOP_LOTEMP,Zone Radiant HVAC Outlet Temperature [C] !Hourly
2285,1,PERI1_TOP_LOTEMP_CHW_INLET,System Node Temperature [C] !Hourly
2286,1,PERI1_TOP_LOTEMP_CHW_OUTLET,System Node Temperature [C] !Hourly
End of Data Dictionary
1,ATLANTA-HARTSFIELD.JACKSON.INTL.AP_GA_USA ANN HTG 99.6% CONDNS DB,  33.63, -84.43,  -5.00, 308.00
2,1, 1,21, 0, 1, 0.00,60.00,WinterDesignDay
7,-6.300000000000007
770,16.861511235932907
2050,0.0
2053,0.4578313158078728
2054,0.12560806012298143
2055,0.332223255684891
2056,30.92336417963039
2057,23.771623704376329
2063,36.222467606267219
2285,12.20000000000001
2286,12.20000000000001
2,1, 1,21, 0, 2, 0.00,60.00,WinterDesignDay
7,-6.300000000000007
770,16.86227418507319
2050,0.0
2053,0.4578313158078728
2054,0.12560875891761015
2055,0.33222255689026239
2056,30.91823724478462
2057,23.76643621985806
2063,36.21850998212422
2285,12.20000000000001
2286,12.20000000000001
2,1, 1,21, 0, 3, 0.00,60.00,WinterDesignDay
7,-6.300000000000007
770,16.862693644015587
2050,0.0
2053,0.4578313158078728
2054,0.12562494001785635
2055,0.3322063757900162
2056,30.9154053287552
2057,23.76323649685089
2063,36.21417172888099
2285,12.20000000000001
2286,12.20000000000001
2,1, 1,21, 0, 4, 0.00,60.00,WinterDesignDay
7,-6.300000000000007
770,16.862819879679788
2050,0.0
2053,0.4578313158078728
2054,0.12565499464225056
2055,0.332176321165622
2056,30.91453399394502
2057,23.761621270311733
2063,36.20976433923525
2285,12.20000000000001
2286,12.20000000000001
2,1, 1,21, 0, 5, 0.00,60.00,WinterDesignDay
7,-6.300000000000007
770,16.862702359956555
2050,0.0
2053,0.4578313158078728
2054,0.1256963390800778
2055,0.33213497672779476
2056,30.915292678102266
2057,23.761300702214738
2063,36.205444906171099
2285,12.20000000000001
2286,12.20000000000001
2,1, 1,21, 0, 6, 0.00,60.00,WinterDesignDay
7,-6.300000000000007
770,16.862374840327953
2050,0.0
2053,0.4578313158078728
2054,0.12574858829507139
2055,0.33208272751280107
2056,30.917454139337104
2057,23.761977894402088
2063,36.20128893248987
2285,12.20000000000001
2286,12.20000000000001
2,1, 1,21, 0, 7, 0.00,60.00,WinterDesignDay
7,-6.300000000000007
770,17.069851258111127
2050,0.0
2053,0.18313252632314909
2054,0.05952077437998341
2055,0.1236117519431656
2056,30.33779499114115
2057,26.54582327279203
2063,36.28767468626428
2285,12.20000000000001
2286,12.20000000000001
2,1, 1,21, 0, 8, 0.00,60.00,WinterDesignDay
7,-6.300000000000007
770,16.949285021074535
2050,0.0
2053,0.4120481842270855
2054,0.1289484829203466
2055,0.2830997013067388
2056,30.355417770320814
2057,22.413818008959646
2063,36.265054091400617
2285,12.20000000000001
2286,12.20000000000001
2,1, 1,21, 0, 9, 0.00,60.00,WinterDesignDay
7,-6.300000000000007
770,16.95714152284996
2050,0.0
2053,0.44257027194761036
2054,0.13736106264224505
2055,0.30520920930536518
2056,30.28618306514219
2057,21.795862115409525
2063,36.25464700278655
2285,12.20000000000001
2286,12.20000000000001
2,1, 1,21, 0,10, 0.00,60.00,WinterDesignDay
7,-6.300000000000007
770,16.957697142748854
2050,0.0
2053,0.39678714036682308
2054,0.12384521482771087
2055,0.27294192553911209
2056,30.28610399588554
2057,22.623176873031789
2063,36.25314287119758
2285,12.20000000000001
2286,12.20000000000001
2,1, 1,21, 0,11, 0.00,60.00,WinterDesignDay
7,-6.300000000000007
770,16.95856350454244
2050,0.0
2053,0.39678714036682308
2054,0.12348325902805127
2055,0.27330388133877156
2056,30.280650864395726
2057,22.643639910732234
2063,36.25519815749815
2285,12.20000000000001
2286,12.20000000000001
2,1, 1,21, 0,12, 0.00,60.00,WinterDesignDay
7,-6.300000000000007
770,16.959647669851269
2050,0.0
2053,0.39678714036682308
2054,0.12315029928437756
2055,0.2736368410824453
2056,30.273802430142476
2057,22.659529945998547
2063,36.259146136556839
2285,12.20000000000001
2286,12.20000000000001
2,1, 1,21, 0,13, 0.00,60.00,WinterDesignDay
7,-6.300000000000007
770,16.9604780560037
2050,0.0
2053,0.39678714036682308
2054,0.12286394295172977
2055,0.273923197415093
2056,30.26856013250447
2057,22.673805106605209
2063,36.263561680188718
2285,12.20000000000001
2286,12.20000000000001
2,1, 1,21, 0,14, 0.00,60.00,WinterDesignDay
7,-6.300000000000007
770,16.963320217605057
2050,0.0
2053,0.39678714036682308
2054,0.12230031333623402
2055,0.27448682703058877
2056,30.250358556857014
2057,22.695062830511504
2063,36.26755316193404
2285,12.20000000000001
2286,12.20000000000001
2,1, 1,21, 0,15, 0.00,60.00,WinterDesignDay
7,-6.300000000000007
770,16.961986411757424
2050,0.0
2053,0.39678714036682308
2054,0.12223873219756501
2055,0.27454840816925776
2056,30.26015821538223
2057,22.712000231910009
2063,36.27186203703018
2285,12.20000000000001
2286,12.20000000000001
2,1, 1,21, 0,16, 0.00,60.00,WinterDesignDay
7,-6.300000000000007
770,16.961511544011644
2050,0.0
2053,0.39678714036682308
2054,0.12189181364071396
2055,0.27489532672610897
2056,30.26587061642255
2057,22.75309708138932
2063,36.274248439792668
2285,12.20000000000001
2286,12.20000000000001
2,1, 1,21, 0,17, 0.00,60.00,WinterDesignDay
7,-6.300000000000007
770,16.957069347296849
2050,0.0
2053,0.39678714036682308
2054,0.12220162471213038
2055,0.27458551565469249
2056,30.297616886165775
2057,22.781718573887607
2063,36.27845514617697
2285,12.20000000000001
2286,12.20000000000001
2,1, 1,21, 0,18, 0.00,60.00,WinterDesignDay
7,-6.300000000000007
770,16.95215762588823
2050,0.0
2053,0.4578313158078728
2054,0.14142995694087535
2055,0.3164013588669972
2056,30.31968698723661
2057,21.581625235649765
2063,36.285245758897428
2285,12.20000000000001
2286,12.20000000000001
2,1, 1,21, 0,19, 0.00,60.00,WinterDesignDay
7,-6.300000000000007
770,16.616720541862386
2050,0.0
2053,0.4502007938777416
2054,0.16345774246484683
2055,0.2867430514128945
2056,32.51928099826271
2057,22.908244518785457
2063,36.22846427639022
2285,12.20000000000001
2286,12.20000000000001
2,1, 1,21, 0,20, 0.00,60.00,WinterDesignDay
7,-6.300000000000007
770,16.772558275184524
2050,0.0
2053,0.4578313158078728
2054,0.13645316219222856
2055,0.3213781536156439
2056,31.53239950823166
2057,23.777552047236019
2063,36.197749998209818
2285,12.20000000000001
2286,12.20000000000001
2,1, 1,21, 0,21, 0.00,60.00,WinterDesignDay
7,-6.300000000000007
770,16.836495313092756
2050,0.0
2053,0.4578313158078728
2054,0.12755129460714635
2055,0.33028002120072627
2056,31.092671536102367
2057,23.85235428409714
2063,36.21361446995852
2285,12.20000000000001
2286,12.20000000000001
2,1, 1,21, 0,22, 0.00,60.00,WinterDesignDay
7,-6.300000000000007
770,16.848984480183046
2050,0.0
2053,0.4578313158078728
2054,0.12620559424012785
2055,0.3316257215677447
2056,31.00739775499461
2057,23.83790980569826
2063,36.22193382560766
2285,12.20000000000001
2286,12.20000000000001
2,1, 1,21, 0,23, 0.00,60.00,WinterDesignDay
7,-6.300000000000007
770,16.852150558414129
2050,0.0
2053,0.4578313158078728
2054,0.12606576852997027
2055,0.33176554727790227
2056,30.9858699164693
2057,23.820254802707244
2063,36.223168475696549
2285,12.20000000000001
2286,12.20000000000001
2,1, 1,21, 0,24, 0.00,60.00,WinterDesignDay
7,-6.300000000000007
770,16.853602858798923
2050,0.0
2053,0.4578313158078728
2054,0.12605692340649148
2055,0.331774392401381
2056,30.976112374773796
2057,23.809359252003355
2063,36.22075904569718
2285,12.20000000000001
2286,12.20000000000001
1,ATLANTA-HARTSFIELD.JACKSON.INTL.AP_GA_USA ANN CLG .4% CONDNS DB=>MWB,  33.63, -84.43,  -5.00, 308.00
2,1, 7,21, 0, 1, 0.00,60.00,SummerDesignDay
7,26.32025
770,23.999554156588059
2050,11028.477625319569
2053,0.46560681144595175
2054,0.409783263523102
2055,0.05582354792285002
2056,7.838007901971211
2057,13.485599473897305
2063,28.832112171869047
2285,7.015134857774302
2286,12.717160682097364
2,1, 7,21, 0, 2, 0.00,60.00,SummerDesignDay
7,25.84683333333334
770,23.52004753026607
2050,8891.818269427773
2053,0.46560681144595175
2054,0.3781026395025883
2055,0.08750417194336378
2056,8.228466823197902
2057,12.782500020169725
2063,28.22223052980998
2285,7.119586882741276
2286,11.719714525052089
2,1, 7,21, 0, 3, 0.00,60.00,SummerDesignDay
7,25.515125
770,23.245165904627745
2050,8106.695455279934
2053,0.46560681144595175
2054,0.3669475138389732
2055,0.09865929760697877
2056,8.459268540702162
2057,12.611516428920249
2063,28.06387836191171
2285,7.284739011941207
2286,11.4830848975
2,1, 7,21, 0, 4, 0.00,60.00,SummerDesignDay
7,25.230124999999995
770,23.051452734995629
2050,7746.764996844166
2053,0.46560681144595175
2054,0.3619632814197423
2055,0.10364353002620978
2056,8.621388316872054
2057,12.58949535321798
2063,28.17867093754277
2285,7.4259628378378379
2286,11.440170366851133
2,1, 7,21, 0, 5, 0.00,60.00,SummerDesignDay
7,24.993416666666673
770,22.893846646113638
2050,7521.150689414255
2053,0.46560681144595175
2054,0.35862521885279949
2055,0.1069815925931526
2056,8.753122977518517
2057,12.605833809053565
2063,28.032428652218397
2285,7.544027675604871
2286,11.442841027642759
2,1, 7,21, 0, 6, 0.00,60.00,SummerDesignDay
7,24.996583333333335
770,22.77014797510085
2050,7377.018689618263
2053,0.46560681144595175
2054,0.34990105392864509
2055,0.11570575751730709
2056,8.856981215020105
2057,12.635991678828493
2063,27.9462358152718
2285,7.545573915632699
2286,11.370688498812085
2,1, 7,21, 0, 7, 0.00,60.00,SummerDesignDay
7,25.42804166666666
770,23.06354884129633
2050,7904.252796707889
2053,0.46560681144595175
2054,0.35756220841814487
2055,0.10804460302780719
2056,8.619322855015769
2057,12.668094927943674
2063,30.0008183955033
2285,7.335703317964299
2286,11.4305758517955
2,1, 7,21, 0, 8, 0.00,60.00,SummerDesignDay
7,26.575958333333334
770,23.25718004195769
2050,8611.177835346429
2053,0.46560681144595175
2054,0.3444890082812799
2055,0.1211178031646721
2056,8.45587779868967
2057,12.866514784277504
2063,30.0008183955033
2285,6.840959799294428
2286,11.29769473002762
2,1, 7,21, 0, 9, 0.00,60.00,SummerDesignDay
7,28.287541666666664
770,23.574684634806315
2050,9757.030968570787
2053,0.46560681144595175
2054,0.36169373080904018
2055,0.10391308063691189
2056,8.19284732831537
2057,13.189948253432485
2063,30.0008183955033
2285,6.699999999999995
2286,11.743194822327017
2,1, 7,21, 0,10, 0.00,60.00,SummerDesignDay
7,29.995958333333328
770,23.94444727447883
2050,10988.513080577268
2053,0.46560681144595175
2054,0.3877028240951919
2055,0.07790398735076017
2056,7.8845850446990479
2057,13.51181650878504
2063,30.0008183955033
2285,6.699999999999993
2286,12.373320618165499
2,1, 7,21, 0,11, 0.00,60.00,SummerDesignDay
7,31.514374999999995
770,24.27388830209453
2050,12013.756946579731
2053,0.46560681144595175
2054,0.408647760639356
2055,0.05695905080659621
2056,7.609193139518099
2057,13.76088999824192
2063,30.0008183955033
2285,6.699999999999993
2286,12.897781776212347
2,1, 7,21, 0,12, 0.00,60.00,SummerDesignDay
7,32.697916666666667
770,24.52369824457612
2050,12749.20946418936
2053,0.46560681144595175
2054,0.43177413426481489
2055,0.03383267718113731
2056,7.406614717806223
2057,13.93446398957899
2063,30.0008183955033
2285,6.82067978818647
2286,13.413223483780916
2,1, 7,21, 0,13, 0.00,60.00,SummerDesignDay
7,33.55133333333333
770,24.71547835174812
2050,12806.475997486228
2053,0.46560681144595175
2054,0.46560681144595175
2055,0.0
2056,7.576297249277006
2057,14.133840721606246
2063,30.0008183955033
2285,7.490454350535249
2286,14.133840721606246
2,1, 7,21, 0,14, 0.00,60.00,SummerDesignDay
7,34.16645833333333
770,25.37257333194785
2050,12879.974595829206
2053,0.46560681144595175
2054,0.46560681144595175
2055,0.0
2056,8.276009496393867
2057,14.872730982128959
2063,30.0008183955033
2285,8.189818819308663
2286,14.872730982128959
2,1, 7,21, 0,15, 0.00,60.00,SummerDesignDay
7,34.40000000000004
770,26.906215019663276
2050,12961.143936375334
2053,0.46560681144595175
2054,0.46560681144595175
2055,0.0
2056,10.471185984437997
2057,17.11414976957327
2063,30.0008183955033
2285,10.385042851607143
2286,17.11414976957327
2,1, 7,21, 0,16, 0.00,60.00,SummerDesignDay
7,34.110250000000018
770,28.489963805517399
2050,12948.333654935801
2053,0.46560681144595175
2054,0.46560681144595175
2055,0.0
2056,13.002417414571898
2057,19.643676428396796
2063,30.0008183955033
2285,12.928973774726506
2286,19.643676428396796
2,1, 7,21, 0,17, 0.00,60.00,SummerDesignDay
7,33.44366666666667
770,29.540187141427528
2050,12950.060851751248
2053,0.46560681144595175
2054,0.46560681144595175
2055,0.0
2056,14.951092094954639
2057,21.59680085454573
2063,30.0008183955033
2285,14.880780103571749
2286,21.59680085454573
2,1, 7,21, 0,18, 0.00,60.00,SummerDesignDay
7,32.58708333333333
770,30.194296044365534
2050,12930.122379002996
2053,0.46560681144595175
2054,0.46560681144595175
2055,0.0
2056,17.68073470090075
2057,24.31985100878034
2063,30.0008183955033
2285,17.590781387387314
2286,24.31985100878034
2,1, 7,21, 0,19, 0.00,60.00,SummerDesignDay
7,31.395624999999997
770,29.978147075002818
2050,12766.48068149026
2053,0.46560681144595175
2054,0.46560681144595175
2055,0.0
2056,19.067013593253927
2057,25.623847313732438
2063,30.0008183955033
2285,18.97759493659547
2286,25.623847313732438
2,1, 7,21, 0,20, 0.00,60.00,SummerDesignDay
7,30.16379166666667
770,28.573131567071209
2050,12565.979790645226
2053,0.46560681144595175
2054,0.46560681144595175
2055,0.0
2056,17.50175029141976
2057,23.95367973414594
2063,30.0008183955033
2285,17.414120558881103
2286,23.95367973414594
2,1, 7,21, 0,21, 0.00,60.00,SummerDesignDay
7,29.215374999999999
770,27.21556365104645
2050,12597.774406864517
2053,0.46560681144595175
2054,0.46560681144595175
2055,0.0
2056,13.965997935049336
2057,20.429197940003684
2063,30.0008183955033
2285,13.89405705426138
2286,20.429197940003684
2,1, 7,21, 0,22, 0.00,60.00,SummerDesignDay
7,28.360375
770,26.29489433754386
2050,12710.180472418557
2053,0.46560681144595175
2054,0.46560681144595175
2055,0.0
2056,11.666433082499044
2057,18.183045681960086
2063,30.0008183955033
2285,11.589222524059757
2286,18.183045681960086
2,1, 7,21, 0,23, 0.00,60.00,SummerDesignDay
7,27.60195833333334
770,25.478566717499797
2050,12724.155567125536
2053,0.46560681144595175
2054,0.46560681144595175
2055,0.0
2056,10.606672679656912
2057,17.12847262330847
2063,30.0008183955033
2285,10.525436879884572
2286,17.12847262330847
2,1, 7,21, 0,24, 0.00,60.00,SummerDesignDay
7,26.936958333333334
770,24.800783803511025
2050,12644.768532584683
2053,0.46560681144595175
2054,0.46560681144595175
2055,0.0
2056,8.986717737214575
2057,15.464510167091511
2063,30.0008183955033
2285,8.902213674822296
2286,15.464510167091511
1,RUNPERIOD 1,  33.63, -84.43,  -5.00, 308.00
2,1, 7, 1, 0, 1, 0.00,60.00,Monday
7,21.118333333333337
770,20.186361224613586
2050,5627.50083626952
2053,0.46560681144595175
2054,0.4123360031570798
2055,0.053270808288872418
2056,9.930105339643445
2057,12.813927194855543
2063,11.984598092145605
2285,9.483682634680854
2286,12.413624967570252
2,1, 7, 1, 0, 2, 0.00,60.00,Monday
7,22.098333333333334
770,20.07671592446865
2050,6571.652443480165
2053,0.46560681144595175
2054,0.46560681144595175
2055,0.0
2056,9.0247382626481
2057,12.391372641230558
2063,11.984598092145605
2285,8.978645698011276
2286,12.391372641230558
2,1, 7, 1, 0, 3, 0.00,60.00,Monday
7,21.949166666666675
770,20.030965097983704
2050,2989.173142445937
2053,0.46560681144595175
2054,0.1893882244132691
2055,0.2762185870326832
2056,11.377022209999991
2057,12.909468820306632
2063,11.984598092145605
2285,9.053182680500783
2286,10.631769205879289
2,1, 7, 1, 0, 4, 0.00,60.00,Monday
7,21.79833333333333
770,20.100014687546265
2050,4030.0692572216855
2053,0.46560681144595175
2054,0.23044686216471925
2055,0.23515994928123297
2056,11.327714420000005
2057,13.393763609467094
2063,11.984598092145605
2285,9.127110112292013
2286,11.239298565177182
2,1, 7, 1, 0, 5, 0.00,60.00,Monday
7,21.700000000000025
770,20.109174087019004
2050,4583.636699232685
2053,0.46560681144595175
2054,0.25960651394396408
2055,0.206000297501988
2056,11.124718359999985
2057,13.474421964239176
2063,11.984598092145605
2285,9.17746145709765
2286,11.573301642016734
2,1, 7, 1, 0, 6, 0.00,60.00,Monday
7,21.954166666666663
770,20.045725483163634
2050,7273.505784640385
2053,0.46560681144595175
2054,0.46560681144595175
2055,0.0
2056,9.101722920438493
2057,12.82801593667596
2063,12.690981273779367
2285,9.055628117218623
2286,12.82801593667596
2,1, 7, 1, 0, 7, 0.00,60.00,Monday
7,22.200000000000025
770,20.07273513221687
2050,6640.356196727803
2053,0.46560681144595175
2054,0.46560681144595175
2055,0.0
2056,8.975855565960153
2057,12.377632551313761
2063,18.77291956833521
2285,8.929769780679277
2286,12.377632551313761
2,1, 7, 1, 0, 8, 0.00,60.00,Monday
7,23.31833333333333
770,20.25553361149046
2050,7518.486683323889
2053,0.46560681144595175
2054,0.46558404024459656
2055,0.000022771201355222447
2056,8.43989438472323
2057,12.290810293644885
2063,9.981631325876445
2285,8.393592544590764
2286,12.290598100542179
2,1, 7, 1, 0, 9, 0.00,60.00,Monday
7,25.823333333333335
770,21.17839856605359
2050,8809.546809334355
2053,0.46560681144595175
2054,0.4247180335941633
2055,0.04088877785178882
2056,7.690367767171852
2057,12.20145840155521
2063,9.701773278623133
2285,7.177778821195635
2286,11.734955341769359
2,1, 7, 1, 0,10, 0.00,60.00,Monday
7,27.759166666666667
770,22.07048965083307
2050,5475.36409989405
2053,0.46560681144595175
2054,0.18719492132354258
2055,0.2784118901224095
2056,10.91177607999999
2057,13.718433562921279
2063,9.701773278623133
2285,6.700000005584965
2286,9.552791255841982
2,1, 7, 1, 0,11, 0.00,60.00,Monday
7,29.164166666666668
770,22.717108959884809
2050,12424.678351050874
2053,0.46560681144595175
2054,0.40521279690280706
2055,0.06039401454314505
2056,7.711008072000012
2057,14.07333846706658
2063,9.701773278623133
2285,6.705001865527984
2286,13.118719718146272
2,1, 7, 1, 0,12, 0.00,60.00,Monday
7,30.0
770,23.0577121601287
2050,9321.579338521884
2053,0.46560681144595175
2054,0.28120662241978947
2055,0.18440018902616285
2056,9.901588440000002
2057,14.678401411850058
2063,9.701773278623133
2285,6.699999999999993
2286,11.52293317872207
2,1, 7, 1, 0,13, 0.00,60.00,Monday
7,30.86416666666667
770,23.125354450710444
2050,12899.737439215956
2053,0.46560681144595175
2054,0.4639224444581608
2055,0.0016843669877909917
2056,8.098882372647174
2057,14.705322117736666
2063,9.701773278623133
2285,7.986046197751681
2286,14.67600323850843
2,1, 7, 1, 0,14, 0.00,60.00,Monday
7,29.717500000000006
770,23.389983376168325
2050,12784.427831618026
2053,0.46560681144595175
2054,0.46560681144595175
2055,0.0
2056,7.972122066514686
2057,14.519240741793322
2063,9.701773278623133
2285,7.886390423085936
2286,14.519240741793322
2,1, 7, 1, 0,15, 0.00,60.00,Monday
7,28.613333333333335
770,24.216934032620228
2050,8225.806025835405
2053,0.46560681144595175
2054,0.2090178619209987
2055,0.25658894952495356
2056,11.930483009999993
2057,16.14824047022047
2063,9.701773278623133
2285,6.719418970195405
2286,10.983323661486928
2,1, 7, 1, 0,16, 0.00,60.00,Monday
7,28.0275
770,24.344120531405929
2050,13062.901163784525
2053,0.46560681144595175
2054,0.46284487593265657
2055,0.002761935513295209
2056,10.338203381229189
2057,17.03301318914044
2063,9.701773278623133
2285,10.198389395157506
2286,16.97351777366102
2,1, 7, 1, 0,17, 0.00,60.00,Monday
7,25.276666666666665
770,23.705362508273
2050,12703.442486989416
2053,0.46560681144595175
2054,0.46560681144595175
2055,0.0
2056,9.743287280674944
2057,16.252767773660279
2063,9.701773278623133
2285,9.659097614141102
2286,16.252767773660279
2,1, 7, 1, 0,18, 0.00,60.00,Monday
7,23.594999999999997
770,22.528412720552234
2050,8683.646887040471
2053,0.46560681144595175
2054,0.29738647173361579
2055,0.16822033971233625
2056,10.838036780000003
2057,15.289157687561369
2063,9.701773278623133
2285,8.247312386328192
2286,12.745593437699228
2,1, 7, 1, 0,19, 0.00,60.00,Monday
7,23.604999999999995
770,21.740471235175734
2050,11069.00230987566
2053,0.46560681144595175
2054,0.46560681144595175
2055,0.0
2056,8.284496200357545
2057,13.953718245886377
2063,9.701773278623133
2285,8.2384173912346
2286,13.953718245886377
2,1, 7, 1, 0,20, 0.00,60.00,Monday
7,21.917500000000005
770,21.21085957239854
2050,4399.425577888864
2053,0.46560681144595175
2054,0.218018375418422
2055,0.24758843602753007
2056,11.755673969999985
2057,14.011353315135218
2063,26.99858324256742
2285,9.03786045854592
2286,11.339684723618524
2,1, 7, 1, 0,21, 0.00,60.00,Monday
7,20.304999999999994
770,20.809909620290047
2050,7047.754657532557
2053,0.46560681144595175
2054,0.46560681144595175
2055,0.0
2056,9.919390206566103
2057,13.531014585868756
2063,27.91344537178162
2285,9.873288190102727
2286,13.531014585868754
2,1, 7, 1, 0,22, 0.00,60.00,Monday
7,20.294999999999996
770,20.57980893207781
2050,3659.890125532439
2053,0.46560681144595175
2054,0.24884030952181586
2055,0.2167665019241362
2056,11.58890269999999
2057,13.465316799482736
2063,25.474083606591387
2285,9.868789815972605
2286,11.79134663099079
2,1, 7, 1, 0,23, 0.00,60.00,Monday
7,20.0
770,20.45578774003338
2050,5942.056583287684
2053,0.46560681144595175
2054,0.46560681144595175
2055,0.0
2056,10.065857504185777
2057,13.111002568618268
2063,11.982390986615574
2285,10.01977175868037
2286,13.111002568618268
2,1, 7, 1, 0,24, 0.00,60.00,Monday
7,20.0
770,20.310004282985966
2050,4544.518460965016
2053,0.46560681144595175
2054,0.37292294899695108
2055,0.09268386244900101
2056,10.65625109
2057,12.98558902186459
2063,11.982390986615574
2285,10.019819819819825
2286,12.395288142762923
2,2, 7, 2, 0, 1, 0.00,60.00,Tuesday
7,20.0
770,20.201452251739583
2050,4222.790075376093
2053,0.46560681144595175
2054,0.3276016940069843
2055,0.13800511743896785
2056,10.997337520935922
2057,13.161982038652447
2063,11.982390986615574
2285,10.019819819819825
2286,12.230599235125109
2,2, 7, 2, 0, 2, 0.00,60.00,Tuesday
7,20.0
770,20.15503457825154
2050,4416.486873742594
2053,0.46560681144595175
2054,0.3278186089793472
2055,0.13778820246660496
2056,11.036948249527696
2057,13.300909189788879
2063,11.982390986615574
2285,10.019819819819825
2286,12.329916181054479
2,2, 7, 2, 0, 3, 0.00,60.00,Tuesday
7,19.440833333333335
770,20.08736424182725
2050,4394.713014636875
2053,0.46560681144595175
2054,0.3508293325441657
2055,0.1147774789017864
2056,11.092320099950483
2057,13.345154917154466
2063,11.982390986615574
2285,10.287888412389304
2286,12.586859382235302
2,2, 7, 2, 0, 4, 0.00,60.00,Tuesday
7,19.154166666666666
770,19.990000328327104
2050,4210.534932822559
2053,0.46560681144595175
2054,0.35546339322814038
2055,0.11014341821781161
2056,11.17413673557709
2057,13.332608140027047
2063,11.982390986615574
2285,10.442927392517003
2286,12.647536030810049
2,2, 7, 2, 0, 5, 0.00,60.00,Tuesday
7,19.399999999999996
770,19.93475878749188
2050,4046.0304199911167
2053,0.46560681144595175
2054,0.3315786138365319
2055,0.1340281976094202
2056,11.22029965083772
2057,13.294467574858869
2063,11.982390986615574
2285,10.317157168066668
2286,12.437462935933825
2,2, 7, 2, 0, 6, 0.00,60.00,Tuesday
7,19.399999999999996
770,19.91202294257175
2050,4004.631310149847
2053,0.46560681144595175
2054,0.328418301422777
2055,0.1371885100231752
2056,11.240096397417237
2057,13.293053079604363
2063,11.982390986615574
2285,10.31711711711712
2286,12.416211904735413
2,2, 7, 2, 0, 7, 0.00,60.00,Tuesday
7,19.705
770,20.049276959650617
2050,4260.420443639438
2053,0.46560681144595175
2054,0.33048319795736355
2055,0.13512361348858874
2056,11.129147799882297
2057,13.31316329410678
2063,12.659368074405166
2285,10.17089788480649
2286,12.401050018365944
2,2, 7, 2, 0, 8, 0.00,60.00,Tuesday
7,21.118333333333337
770,20.43587635907761
2050,5271.28669486341
2053,0.46560681144595175
2054,0.31865499960508505
2055,0.14695181184086715
2056,10.80948189602255
2057,13.511444822752165
2063,11.72535698675471
2285,9.48373069582031
2286,12.231826038073061
2,2, 7, 2, 0, 9, 0.00,60.00,Tuesday
7,23.62333333333333
770,21.535665886287295
2050,7441.483705877718
2053,0.46560681144595175
2054,0.32855792058881919
2055,0.1370488908571329
2056,9.904973680960007
2057,13.718302537978019
2063,11.589013556674299
2285,8.247549536458142
2286,12.106998477729402
2,2, 7, 2, 0,10, 0.00,60.00,Tuesday
7,25.55916666666667
770,22.1173768038417
2050,8703.540682555982
2053,0.46560681144595175
2054,0.3181965751260107
2055,0.14741023631994133
2056,9.407665993475503
2057,13.867026635432909
2063,11.589013556674299
2285,7.274498035090321
2286,11.779971275869853
2,2, 7, 2, 0,11, 0.00,60.00,Tuesday
7,26.65916666666666
770,22.464556477079545
2050,9602.482241038226
2053,0.46560681144595175
2054,0.31875082155591247
2055,0.14685598989003974
2056,9.117039679179545
2057,14.036508322442036
2063,11.589013556674299
2285,6.783661685662574
2286,11.749238452286658
2,2, 7, 2, 0,12, 0.00,60.00,Tuesday
7,28.06416666666667
770,22.727684470211849
2050,10278.209628638562
2053,0.46560681144595175
2054,0.33138702220952667
2055,0.13421978923642553
2056,8.896971327536573
2057,14.162237722152549
2063,11.589013556674299
2285,6.699999999999993
2286,12.011371129659278
2,2, 7, 2, 0,13, 0.00,60.00,Tuesday
7,29.459166666666666
770,22.71554275654781
2050,10548.257647180906
2053,0.46560681144595175
2054,0.3335346488968342
2055,0.132072162549118
2056,8.90379245764815
2057,14.3074108033915
2063,11.589013556674299
2285,6.699999999999993
2286,12.149723185775367
2,2, 7, 2, 0,14, 0.00,60.00,Tuesday
7,29.440833333333328
770,23.58187113996956
2050,12440.625143998304
2053,0.46560681144595175
2054,0.39975262298049066
2055,0.06585418846546139
2056,8.334300424518697
2057,14.706099987736407
2063,11.589013556674299
2285,7.166306901437839
2286,13.599576906142067
2,2, 7, 2, 0,15, 0.00,60.00,Tuesday
7,29.76416666666667
770,24.677506510006233
2050,12890.872581517102
2053,0.46560681144595175
2054,0.46560681144595175
2055,0.0
2056,9.357196726071996
2057,15.961878846058579
2063,11.589013556674299
2285,9.270953410980385
2286,15.961878846058579
2,2, 7, 2, 0,16, 0.00,60.00,Tuesday
7,30.854166666666669
770,26.116942876498756
2050,12939.309582168431
2053,0.46560681144595175
2054,0.46560681144595175
2055,0.0
2056,11.375910297769078
2057,18.009449373193584
2063,11.589013556674299
2285,11.291131895495555
2286,18.009449373193584
2,2, 7, 2, 0,17, 0.00,60.00,Tuesday
7,30.84583333333334
770,27.320280843141178
2050,12926.758755865556
2053,0.46560681144595175
2054,0.46560681144595175
2055,0.0
2056,13.415680291789755
2057,20.046659637565737
2063,11.589013556674299
2285,13.347290843771335
2286,20.046659637565737
2,2, 7, 2, 0,18, 0.00,60.00,Tuesday
7,30.59999999999997
770,27.488079110175869
2050,12890.393334653756
2053,0.46560681144595175
2054,0.46560681144595175
2055,0.0
2056,14.818600818447554
2057,21.433536197259739
2063,11.589013556674299
2285,14.751493129837096
2286,21.433536197259739
2,2, 7, 2, 0,19, 0.00,60.00,Tuesday
7,29.430833333333337
770,26.55828275247524
2050,12761.884430416369
2053,0.46560681144595175
2054,0.46560681144595175
2055,0.0
2056,15.579242371510932
2057,22.12934560557922
2063,12.51042054876203
2285,15.49749787524422
2286,22.12934560557922
2,2, 7, 2, 0,20, 0.00,60.00,Tuesday
7,26.927500000000003
770,25.03837411046367
2050,12661.230703807145
2053,0.46560681144595175
2054,0.46560681144595175
2055,0.0
2056,14.059556841470409
2057,20.55552763847375
2063,29.877216141297276
2285,13.991729249392222
2286,20.55552763847375
2,2, 7, 2, 0,21, 0.00,60.00,Tuesday
7,24.430833333333334
770,23.462984503107799
2050,12682.885299903668
2053,0.46560681144595175
2054,0.46560681144595175
2055,0.0
2056,11.706198996009583
2057,18.208889890456957
2063,29.683767319814007
2285,11.630061886232257
2286,18.208889890456957
2,2, 7, 2, 0,22, 0.00,60.00,Tuesday
7,23.045833333333339
770,22.65957853052298
2050,12612.377313382438
2053,0.46560681144595175
2054,0.46337193363973869
2055,0.002234877806213073
2056,10.129513676826547
2057,16.59308855974677
2063,25.575727885981565
2285,10.017056740420437
2286,16.561204549389005
2,2, 7, 2, 0,23, 0.00,60.00,Tuesday
7,22.494999999999999
770,21.876779967654409
2050,9136.424273437808
2053,0.46560681144595175
2054,0.3991021919643788
2055,0.0665046194815732
2056,9.592245438472166
2057,14.273653017908485
2063,13.068963829468004
2285,8.778753011883835
2286,13.506276033157235
2,2, 7, 2, 0,24, 0.00,60.00,Tuesday
7,21.640833333333334
770,21.321357451865099
2050,6329.57931853217
2053,0.46560681144595175
2054,0.37306666585939027
2055,0.09254014558656185
2056,10.059627188195524
2057,13.303350931644765
2063,11.992323600727675
2285,9.197750261159757
2286,12.487596470317559
End of Data
 Number of Records Written=        1056
