Program Version,EnergyPlus, Version 9.5.0-de239b2e5f, YMD=2021.08.10 13:53
1,5,Environment Title[],Latitude[deg],Longitude[deg],Time Zone[],Elevation[m]
2,8,Day of Simulation[],Month[],Day of Month[],DST Indicator[1=yes 0=no],Hour[],StartMinute[],EndMinute[],DayType
3,5,Cumulative Day of Simulation[],Month[],Day of Month[],DST Indicator[1=yes 0=no],DayType  ! When Daily Report Variables Requested
4,2,Cumulative Days of Simulation[],Month[]  ! When Monthly Report Variables Requested
5,1,Cumulative Days of Simulation[] ! When Run Period Report Variables Requested
6,1,Calendar Year of Simulation[] ! When Annual Report Variables Requested
675,1,PERIMETER_TOP_ZN_3,Zone Mean Air Temperature [C] !Hourly
1748,1,PERI3_TOP_LOTEMP,Zone Radiant HVAC Heating Rate [W] !Hourly
1753,1,PERI3_TOP_LOTEMP,Zone Radiant HVAC Pump Electricity Rate [W] !Hourly
1991,1,BOILER_RADSYS,Boiler Electricity Rate [W] !Hourly
2033,1,HOT WATER LOOP HW SUPPLY PUMP2,Pump Electricity Rate [W] !Hourly
End of Data Dictionary
1,RUNPERIOD 1,  33.63, -84.43,  -5.00, 308.00
2,1, 1,20, 0, 1, 0.00,60.00,Holiday
675,22.085180329581463
1748,0.0
1753,0.0
1991,0.0
2033,0.0
2,1, 1,20, 0, 2, 0.00,60.00,Holiday
675,22.239519716997657
1748,0.0
1753,0.0
1991,0.0
2033,0.0
2,1, 1,20, 0, 3, 0.00,60.00,Holiday
675,22.270569561305419
1748,0.0
1753,0.0
1991,0.0
2033,0.0
2,1, 1,20, 0, 4, 0.00,60.00,Holiday
675,22.249129423166523
1748,0.0
1753,0.0
1991,0.0
2033,0.0
2,1, 1,20, 0, 5, 0.00,60.00,Holiday
675,22.166791771292798
1748,0.0
1753,0.0
1991,0.0
2033,0.0
2,1, 1,20, 0, 6, 0.00,60.00,Holiday
675,22.051268240023597
1748,574.217688962076
1753,6.0
1991,696.5521824637295
2033,5.499233794871794
2,1, 1,20, 0, 7, 0.00,60.00,Holiday
675,22.038154004595574
1748,573.3666696695111
1753,6.0
1991,704.6748043452187
2033,5.499233794871794
2,1, 1,20, 0, 8, 0.00,60.00,Holiday
675,22.02263682328335
1748,569.7008233369686
1753,6.0
1991,700.6913480289979
2033,5.499233794871794
2,1, 1,20, 0, 9, 0.00,60.00,Holiday
675,22.052462468012636
1748,0.0
1753,0.0
1991,0.0
2033,0.0
2,1, 1,20, 0,10, 0.00,60.00,Holiday
675,22.242076418781413
1748,0.0
1753,0.0
1991,0.0
2033,0.0
2,1, 1,20, 0,11, 0.00,60.00,Holiday
675,22.568636668237664
1748,0.0
1753,0.0
1991,0.0
2033,0.0
2,1, 1,20, 0,12, 0.00,60.00,Holiday
675,22.805311957673099
1748,0.0
1753,0.0
1991,0.0
2033,0.0
2,1, 1,20, 0,13, 0.00,60.00,Holiday
675,22.963936754457799
1748,0.0
1753,24.0
1991,0.0
2033,0.0
2,1, 1,20, 0,14, 0.00,60.00,Holiday
675,22.99207850518977
1748,0.0
1753,21.0
1991,0.0
2033,0.0
2,1, 1,20, 0,15, 0.00,60.00,Holiday
675,22.988501498219585
1748,0.0
1753,21.0
1991,0.0
2033,0.0
2,1, 1,20, 0,16, 0.00,60.00,Holiday
675,22.974818430371163
1748,0.0
1753,3.0
1991,0.0
2033,0.0
2,1, 1,20, 0,17, 0.00,60.00,Holiday
675,22.901612508157993
1748,0.0
1753,0.0
1991,0.0
2033,0.0
2,1, 1,20, 0,18, 0.00,60.00,Holiday
675,22.67590249474937
1748,0.0
1753,0.0
1991,0.0
2033,0.0
2,1, 1,20, 0,19, 0.00,60.00,Holiday
675,22.280586250940343
1748,0.0
1753,0.0
1991,0.0
2033,0.0
2,1, 1,20, 0,20, 0.00,60.00,Holiday
675,22.046039830347927
1748,949.8199543861298
1753,9.0
1991,1157.3184426004689
2033,8.248850692307693
2,1, 1,20, 0,21, 0.00,60.00,Holiday
675,22.018534502688277
1748,1829.285982531496
1753,18.0
1991,2256.0546198488129
2033,16.497701384615384
2,1, 1,20, 0,22, 0.00,60.00,Holiday
675,22.013493350352357
1748,1759.1402520489294
1753,18.0
1991,2167.0232135864296
2033,16.497701384615384
2,1, 1,20, 0,23, 0.00,60.00,Holiday
675,22.006263016762668
1748,1972.1828545941476
1753,21.0
1991,2428.050097577152
2033,19.24731828205128
2,1, 1,20, 0,24, 0.00,60.00,Holiday
675,22.003805889434479
1748,1890.1314629433662
1753,21.0
1991,2323.538263688962
2033,19.24731828205128
2,2, 1,21, 0, 1, 0.00,60.00,Tuesday
675,22.010519910140819
1748,2129.2292323388326
1753,21.0
1991,2627.6841521217754
2033,19.24731828205128
2,2, 1,21, 0, 2, 0.00,60.00,Tuesday
675,22.006233484136897
1748,2886.5918550287499
1753,27.0
1991,3588.3382320544576
2033,24.746552076923075
2,2, 1,21, 0, 3, 0.00,60.00,Tuesday
675,22.028501000911967
1748,2697.3387192149805
1753,9.0
1991,2192.0255268615
2033,8.248850692307693
2,2, 1,21, 0, 4, 0.00,60.00,Tuesday
675,22.01181738940557
1748,3021.9107702204967
1753,21.0
1991,4949.744552542616
2033,19.24731828205128
2,2, 1,21, 0, 5, 0.00,60.00,Tuesday
675,22.043041662531697
1748,2305.614101819986
1753,9.0
1991,2192.0255268615
2033,8.248850692307693
2,2, 1,21, 0, 6, 0.00,60.00,Tuesday
675,21.772060777569725
1748,0.0
1753,0.0
1991,0.0
2033,0.0
2,2, 1,21, 0, 7, 0.00,60.00,Tuesday
675,22.073876557651876
1748,1537.6461762443155
1753,12.0
1991,2723.5033812152098
2033,10.998467589743589
2,2, 1,21, 0, 8, 0.00,60.00,Tuesday
675,19.745484119430939
1748,12700.190413252756
1753,59.0
1991,14350.417302986045
2033,54.07579898290597
2,2, 1,21, 0, 9, 0.00,60.00,Tuesday
675,20.131298447110038
1748,11680.062699422688
1753,60.0
1991,14613.503512410001
2033,54.992337948717949
2,2, 1,21, 0,10, 0.00,60.00,Tuesday
675,20.12682354487813
1748,0.0
1753,0.0
1991,0.0
2033,0.0
2,2, 1,21, 0,11, 0.00,60.00,Tuesday
675,20.380147622402519
1748,11686.561939815025
1753,60.0
1991,14613.503512410001
2033,54.992337948717949
2,2, 1,21, 0,12, 0.00,60.00,Tuesday
675,20.407457088257809
1748,0.0
1753,0.0
1991,0.0
2033,0.0
2,2, 1,21, 0,13, 0.00,60.00,Tuesday
675,20.44701622867722
1748,11694.663522482333
1753,60.0
1991,14613.503512410001
2033,54.992337948717949
2,2, 1,21, 0,14, 0.00,60.00,Tuesday
675,20.614086297597816
1748,0.0
1753,0.0
1991,0.0
2033,0.0
2,2, 1,21, 0,15, 0.00,60.00,Tuesday
675,20.565580402865956
1748,4437.737203109284
1753,60.0
1991,6951.858351756893
2033,54.992337948717949
2,2, 1,21, 0,16, 0.00,60.00,Tuesday
675,20.550761374010646
1748,5566.074037121235
1753,60.0
1991,6834.893873744628
2033,54.992337948717949
2,2, 1,21, 0,17, 0.00,60.00,Tuesday
675,20.635669346424576
1748,9850.121584865916
1753,60.0
1991,12125.870666682502
2033,54.992337948717949
2,2, 1,21, 0,18, 0.00,60.00,Tuesday
675,20.083572941981794
1748,0.0
1753,0.0
1991,0.0
2033,0.0
2,2, 1,21, 0,19, 0.00,60.00,Tuesday
675,19.81114916682474
1748,12842.451344716897
1753,60.0
1991,14613.503512410001
2033,54.992337948717949
2,2, 1,21, 0,20, 0.00,60.00,Tuesday
675,19.866602121157418
1748,11664.203357767703
1753,60.0
1991,14613.503512410001
2033,54.992337948717949
2,2, 1,21, 0,21, 0.00,60.00,Tuesday
675,19.84730152576989
1748,11663.684194157122
1753,60.0
1991,14613.503512410001
2033,54.992337948717949
2,2, 1,21, 0,22, 0.00,60.00,Tuesday
675,22.307838640913155
1748,1301.974766890391
1753,11.0
1991,2679.1423106085
2033,10.081928623931623
2,2, 1,21, 0,23, 0.00,60.00,Tuesday
675,22.096791873357714
1748,1195.827803647571
1753,12.0
1991,1773.1505632939189
2033,10.998467589743589
2,2, 1,21, 0,24, 0.00,60.00,Tuesday
675,22.020707299762788
1748,3659.952838265622
1753,18.0
1991,4291.817380978934
2033,16.497701384615384
2,3, 1,22, 0, 1, 0.00,60.00,Wednesday
675,21.859353673768223
1748,4255.786282528448
1753,54.0
1991,5511.694682611103
2033,49.49310415384615
2,3, 1,22, 0, 2, 0.00,60.00,Wednesday
675,21.638586532125055
1748,5162.113428751731
1753,60.0
1991,6328.493340038849
2033,54.992337948717949
2,3, 1,22, 0, 3, 0.00,60.00,Wednesday
675,21.505278242696528
1748,5453.938878695999
1753,60.0
1991,6742.714705704942
2033,54.992337948717949
2,3, 1,22, 0, 4, 0.00,60.00,Wednesday
675,21.43229821055261
1748,5593.1142360083
1753,60.0
1991,6896.55980606582
2033,54.992337948717949
2,3, 1,22, 0, 5, 0.00,60.00,Wednesday
675,21.37490072353055
1748,5724.621562311777
1753,60.0
1991,7087.145405249033
2033,54.992337948717949
2,3, 1,22, 0, 6, 0.00,60.00,Wednesday
675,21.40811780054177
1748,5653.701199330823
1753,60.0
1991,6980.044081446775
2033,54.992337948717949
2,3, 1,22, 0, 7, 0.00,60.00,Wednesday
675,21.786871612168313
1748,4909.01138164208
1753,60.0
1991,6043.249161276492
2033,54.992337948717949
2,3, 1,22, 0, 8, 0.00,60.00,Wednesday
675,19.38011584936667
1748,9804.940925753031
1753,60.0
1991,12039.494440070792
2033,54.992337948717949
2,3, 1,22, 0, 9, 0.00,60.00,Wednesday
675,19.66205054039637
1748,9025.592309055053
1753,60.0
1991,11144.507563039559
2033,54.992337948717949
2,3, 1,22, 0,10, 0.00,60.00,Wednesday
675,19.9648740879996
1748,8207.618978767307
1753,60.0
1991,10100.884781574894
2033,54.992337948717949
2,3, 1,22, 0,11, 0.00,60.00,Wednesday
675,20.231244341228626
1748,7514.651928598572
1753,60.0
1991,9252.292002364127
2033,54.992337948717949
2,3, 1,22, 0,12, 0.00,60.00,Wednesday
675,20.446881366200328
1748,6963.194355105882
1753,60.0
1991,8600.217470893269
2033,54.992337948717949
2,3, 1,22, 0,13, 0.00,60.00,Wednesday
675,20.457134631567067
1748,6865.6920447143079
1753,60.0
1991,8447.560111728822
2033,54.992337948717949
2,3, 1,22, 0,14, 0.00,60.00,Wednesday
675,20.656567491336383
1748,6406.118784341474
1753,60.0
1991,7922.453456752561
2033,54.992337948717949
2,3, 1,22, 0,15, 0.00,60.00,Wednesday
675,20.728959102983216
1748,6213.1257988021129
1753,60.0
1991,7611.686693357666
2033,54.992337948717949
2,3, 1,22, 0,16, 0.00,60.00,Wednesday
675,20.72242531196625
1748,6215.560469539358
1753,60.0
1991,7652.419989998681
2033,54.992337948717949
2,3, 1,22, 0,17, 0.00,60.00,Wednesday
675,20.65927211601988
1748,6350.243749992735
1753,60.0
1991,7858.058730232328
2033,54.992337948717949
2,3, 1,22, 0,18, 0.00,60.00,Wednesday
675,20.241084250961007
1748,7251.638551244522
1753,60.0
1991,8970.13812208736
2033,54.992337948717949
2,3, 1,22, 0,19, 0.00,60.00,Wednesday
675,19.871451382607725
1748,8072.264545616417
1753,60.0
1991,10026.490043535334
2033,54.992337948717949
2,3, 1,22, 0,20, 0.00,60.00,Wednesday
675,19.681369923350613
1748,8507.1584935764
1753,60.0
1991,10539.045368588218
2033,54.992337948717949
2,3, 1,22, 0,21, 0.00,60.00,Wednesday
675,19.57091343721967
1748,8756.660176256086
1753,60.0
1991,10878.887781998248
2033,54.992337948717949
2,3, 1,22, 0,22, 0.00,60.00,Wednesday
675,21.935952922704808
1748,1954.5333267981417
1753,24.0
1991,2497.3114032230057
2033,21.996935179487175
2,3, 1,22, 0,23, 0.00,60.00,Wednesday
675,21.914625896785084
1748,3859.160489468347
1753,51.0
1991,4761.506375379797
2033,46.74348725641025
2,3, 1,22, 0,24, 0.00,60.00,Wednesday
675,21.845687017679688
1748,4670.2725021678329
1753,60.0
1991,5680.413923828143
2033,54.992337948717949
End of Data
 Number of Records Written=         360
