Program Version,EnergyPlus, Version 9.5.0-de239b2e5f, YMD=2021.07.30 02:30
1,5,Environment Title[],Latitude[deg],Longitude[deg],Time Zone[],Elevation[m]
2,8,Day of Simulation[],Month[],Day of Month[],DST Indicator[1=yes 0=no],Hour[],StartMinute[],EndMinute[],DayType
3,5,Cumulative Day of Simulation[],Month[],Day of Month[],DST Indicator[1=yes 0=no],DayType  ! When Daily Report Variables Requested
4,2,Cumulative Days of Simulation[],Month[]  ! When Monthly Report Variables Requested
5,1,Cumulative Days of Simulation[] ! When Run Period Report Variables Requested
6,1,Calendar Year of Simulation[] ! When Annual Report Variables Requested
675,1,PERIMETER_TOP_ZN_3,Zone Mean Air Temperature [C] !Hourly
1748,1,PERI3_TOP_LOTEMP,Zone Radiant HVAC Heating Rate [W] !Hourly
End of Data Dictionary
1,RUNPERIOD 1,  33.63, -84.43,  -5.00, 308.00
2,1, 1,21, 0, 1, 0.00,60.00,Holiday
675,21.99757998356601
1748,2769.979509336804
2,1, 1,21, 0, 2, 0.00,60.00,Holiday
675,21.99339267330673
1748,3781.0618407977538
2,1, 1,21, 0, 3, 0.00,60.00,Holiday
675,22.005544608688586
1748,5746.543036609119
2,1, 1,21, 0, 4, 0.00,60.00,Holiday
675,21.987005932804885
1748,5325.4888482535229
2,1, 1,21, 0, 5, 0.00,60.00,Holiday
675,22.014322770283639
1748,4569.791626025739
2,1, 1,21, 0, 6, 0.00,60.00,Holiday
675,21.69015884039304
1748,0.0
2,1, 1,21, 0, 7, 0.00,60.00,Holiday
675,21.558959452253615
1748,7309.9248040344
2,1, 1,21, 0, 8, 0.00,60.00,Holiday
675,21.92748705964033
1748,8440.117706402005
2,1, 1,21, 0, 9, 0.00,60.00,Holiday
675,22.012623211333215
1748,3990.413684524175
2,1, 1,21, 0,10, 0.00,60.00,Holiday
675,21.93315002786617
1748,0.0
2,1, 1,21, 0,11, 0.00,60.00,Holiday
675,22.101947140042634
1748,1993.8332270790568
2,1, 1,21, 0,12, 0.00,60.00,Holiday
675,22.177751717883348
1748,0.0
2,1, 1,21, 0,13, 0.00,60.00,Holiday
675,22.222288366998219
1748,0.0
2,1, 1,21, 0,14, 0.00,60.00,Holiday
675,22.45751943154209
1748,0.0
2,1, 1,21, 0,15, 0.00,60.00,Holiday
675,22.56507003468939
1748,0.0
2,1, 1,21, 0,16, 0.00,60.00,Holiday
675,22.506384541577487
1748,0.0
2,1, 1,21, 0,17, 0.00,60.00,Holiday
675,22.34068478509773
1748,0.0
2,1, 1,21, 0,18, 0.00,60.00,Holiday
675,22.09745252843335
1748,0.0
2,1, 1,21, 0,19, 0.00,60.00,Holiday
675,21.9801175447085
1748,4988.706089865166
2,1, 1,21, 0,20, 0.00,60.00,Holiday
675,21.993043646416536
1748,4965.4856738844259
2,1, 1,21, 0,21, 0.00,60.00,Holiday
675,21.97696672826774
1748,7943.489502316297
2,1, 1,21, 0,22, 0.00,60.00,Holiday
675,21.990424667236597
1748,5475.123321150657
2,1, 1,21, 0,23, 0.00,60.00,Holiday
675,21.96257122388494
1748,5557.4550690705059
2,1, 1,21, 0,24, 0.00,60.00,Holiday
675,21.990016531060669
1748,7625.28943342871
2,2, 1,22, 0, 1, 0.00,60.00,Tuesday
675,21.859260704769839
1748,3597.196107788745
2,2, 1,22, 0, 2, 0.00,60.00,Tuesday
675,21.586586563865077
1748,5096.332034657726
2,2, 1,22, 0, 3, 0.00,60.00,Tuesday
675,21.42918758778434
1748,5511.24926620757
2,2, 1,22, 0, 4, 0.00,60.00,Tuesday
675,21.343960648439404
1748,5722.217499152853
2,2, 1,22, 0, 5, 0.00,60.00,Tuesday
675,21.281790619072678
1748,5894.546932668077
2,2, 1,22, 0, 6, 0.00,60.00,Tuesday
675,21.311229947789508
1748,5849.110458484479
2,2, 1,22, 0, 7, 0.00,60.00,Tuesday
675,21.67503264281723
1748,5145.835473065517
2,2, 1,22, 0, 8, 0.00,60.00,Tuesday
675,19.30290003035192
1748,9982.247619271913
2,2, 1,22, 0, 9, 0.00,60.00,Tuesday
675,19.60595809359622
1748,9164.128922787237
2,2, 1,22, 0,10, 0.00,60.00,Tuesday
675,19.9167368708971
1748,8331.571874199468
2,2, 1,22, 0,11, 0.00,60.00,Tuesday
675,20.18561786337126
1748,7634.572806985283
2,2, 1,22, 0,12, 0.00,60.00,Tuesday
675,20.402670133000457
1748,7080.865962703795
2,2, 1,22, 0,13, 0.00,60.00,Tuesday
675,20.413546248406126
1748,6982.454925193497
2,2, 1,22, 0,14, 0.00,60.00,Tuesday
675,20.614021508426434
1748,6521.011537644288
2,2, 1,22, 0,15, 0.00,60.00,Tuesday
675,20.687214593324467
1748,6326.665271776814
2,2, 1,22, 0,16, 0.00,60.00,Tuesday
675,20.681387957220936
1748,6327.965261909879
2,2, 1,22, 0,17, 0.00,60.00,Tuesday
675,20.618878201088735
1748,6461.739809691902
2,2, 1,22, 0,18, 0.00,60.00,Tuesday
675,20.201945626492554
1748,7360.994530506512
2,2, 1,22, 0,19, 0.00,60.00,Tuesday
675,19.84037725902235
1748,8163.828075875269
2,2, 1,22, 0,20, 0.00,60.00,Tuesday
675,19.656029768959664
1748,8585.462322754514
2,2, 1,22, 0,21, 0.00,60.00,Tuesday
675,19.54885005322226
1748,8827.121183300726
2,2, 1,22, 0,22, 0.00,60.00,Tuesday
675,21.91012168254062
1748,1984.9555115145504
2,2, 1,22, 0,23, 0.00,60.00,Tuesday
675,21.90036466292174
1748,4096.314152649882
2,2, 1,22, 0,24, 0.00,60.00,Tuesday
675,21.828276430432266
1748,4713.390663535554
End of Data
 Number of Records Written=          96
