Program Version,EnergyPlus, Version 9.4.0-998c4b761e, YMD=2021.07.15 12:55
1,5,Environment Title[],Latitude[deg],Longitude[deg],Time Zone[],Elevation[m]
2,8,Day of Simulation[],Month[],Day of Month[],DST Indicator[1=yes 0=no],Hour[],StartMinute[],EndMinute[],DayType
3,5,Cumulative Day of Simulation[],Month[],Day of Month[],DST Indicator[1=yes 0=no],DayType  ! When Daily Report Variables Requested
4,2,Cumulative Days of Simulation[],Month[]  ! When Monthly Report Variables Requested
5,1,Cumulative Days of Simulation[] ! When Run Period Report Variables Requested
6,1,Calendar Year of Simulation[] ! When Annual Report Variables Requested
7,1,Environment,Site Outdoor Air Drybulb Temperature [C] !Hourly
769,1,PERIMETER_TOP_ZN_1,Zone Mean Air Temperature [C] !Hourly
2050,1,PERI1_TOP_LOTEMP,Zone Radiant HVAC Cooling Rate [W] !Hourly
2053,1,PERI1_TOP_LOTEMP,Zone Radiant HVAC Mass Flow Rate [kg/s] !Hourly
2054,1,PERI1_TOP_LOTEMP,Zone Radiant HVAC Injection Mass Flow Rate [kg/s] !Hourly
2055,1,PERI1_TOP_LOTEMP,Zone Radiant HVAC Recirculation Mass Flow Rate [kg/s] !Hourly
2056,1,PERI1_TOP_LOTEMP,Zone Radiant HVAC Inlet Temperature [C] !Hourly
2057,1,PERI1_TOP_LOTEMP,Zone Radiant HVAC Outlet Temperature [C] !Hourly
2063,1,PERI2_TOP_LOTEMP,Zone Radiant HVAC Outlet Temperature [C] !Hourly
2285,1,PERI1_TOP_LOTEMP_CHW_INLET,System Node Temperature [C] !Hourly
2286,1,PERI1_TOP_LOTEMP_CHW_OUTLET,System Node Temperature [C] !Hourly
End of Data Dictionary
1,ATLANTA-HARTSFIELD.JACKSON.INTL.AP_GA_USA ANN HTG 99.6% CONDNS DB,  33.63, -84.43,  -5.00, 308.00
2,1, 1,21, 0, 1, 0.00,60.00,WinterDesignDay
7,-6.300000000000007
769,16.033267155774916
2050,0.0
2053,0.47193600000000016
2054,0.06714835423648014
2055,0.40478764576351985
2056,30.034333072935615
2057,28.302719452517477
2063,36.90484957241846
2285,12.20000000000001
2286,12.20000000000001
2,1, 1,21, 0, 2, 0.00,60.00,WinterDesignDay
7,-6.300000000000007
769,16.028706545025285
2050,0.0
2053,0.58992
2054,0.08293762241673213
2055,0.5069823775832679
2056,30.05509489301958
2057,27.922480630808388
2063,36.90390850145899
2285,12.20000000000001
2286,12.20000000000001
2,1, 1,21, 0, 3, 0.00,60.00,WinterDesignDay
7,-6.300000000000007
769,16.02885258912155
2050,0.0
2053,0.7079039999999999
2054,0.10032127607340373
2055,0.6075827239265962
2056,30.057023846119387
2057,27.473984176563378
2063,36.90307350033181
2285,12.20000000000001
2286,12.20000000000001
2,1, 1,21, 0, 4, 0.00,60.00,WinterDesignDay
7,-6.300000000000007
769,16.024471886802183
2050,0.0
2053,0.7079039999999999
2054,0.10054354669782567
2055,0.6073604533021744
2056,30.057486576650189
2057,27.468037651735704
2063,36.90232618693387
2285,12.20000000000001
2286,12.20000000000001
2,1, 1,21, 0, 5, 0.00,60.00,WinterDesignDay
7,-6.300000000000007
769,16.02578509663711
2050,0.0
2053,0.668576
2054,0.09575799655442007
2055,0.5728180034455799
2056,30.05815562021312
2057,27.589202401932199
2063,36.901653705262138
2285,12.20000000000001
2286,12.20000000000001
2,1, 1,21, 0, 6, 0.00,60.00,WinterDesignDay
7,-6.300000000000007
769,16.02690420940756
2050,0.0
2053,0.629248
2054,0.09060713656103302
2055,0.538640863438967
2056,30.069609205375899
2057,27.731522868163674
2063,36.90104403795634
2285,12.20000000000001
2286,12.20000000000001
2,1, 1,21, 0, 7, 0.00,60.00,WinterDesignDay
7,-6.300000000000007
769,16.45096544034138
2050,0.0
2053,0.039328
2054,0.00491988858670842
2055,0.03440811141329158
2056,30.06438398993345
2057,29.940043948006
2063,36.909958330840677
2285,12.20000000000001
2286,12.20000000000001
2,1, 1,21, 0, 8, 0.00,60.00,WinterDesignDay
7,-6.300000000000007
769,16.331239188301969
2050,0.0
2053,0.0
2054,0.0
2055,0.0
2056,30.06438398993345
2057,30.06438398993345
2063,36.92354574498107
2285,12.20000000000001
2286,12.20000000000001
2,1, 1,21, 0, 9, 0.00,60.00,WinterDesignDay
7,-6.300000000000007
769,16.111019244717835
2050,0.0
2053,0.23596800000000005
2054,0.04227103504738454
2055,0.19369696495261544
2056,30.069479711222127
2057,28.932871515074987
2063,36.92975759901743
2285,12.20000000000001
2286,12.20000000000001
2,1, 1,21, 0,10, 0.00,60.00,WinterDesignDay
7,-6.300000000000007
769,16.158714615240596
2050,0.0
2053,0.0
2054,0.0
2055,0.0
2056,30.068611772366635
2057,30.068611772366635
2063,36.93267134313525
2285,12.20000000000001
2286,12.20000000000001
2,1, 1,21, 0,11, 0.00,60.00,WinterDesignDay
7,-6.300000000000007
769,16.165930200906716
2050,0.0
2053,0.23596800000000005
2054,0.041777552624403
2055,0.194190447375597
2056,30.070589912483024
2057,28.950138743790569
2063,36.934345150097218
2285,12.20000000000001
2286,12.20000000000001
2,1, 1,21, 0,12, 0.00,60.00,WinterDesignDay
7,-6.300000000000007
769,16.10593173005673
2050,0.0
2053,0.23596800000000005
2054,0.0415304302046703
2055,0.1944375697953297
2056,30.062736205481845
2057,28.949947150241937
2063,36.93553792246554
2285,12.20000000000001
2286,12.20000000000001
2,1, 1,21, 0,13, 0.00,60.00,WinterDesignDay
7,-6.300000000000007
769,16.15975006107889
2050,0.0
2053,0.0
2054,0.0
2055,0.0
2056,30.05039690898936
2057,30.05039690898936
2063,36.93647399983058
2285,12.20000000000001
2286,12.20000000000001
2,1, 1,21, 0,14, 0.00,60.00,WinterDesignDay
7,-6.300000000000007
769,16.160575986213958
2050,0.0
2053,0.23596800000000005
2054,0.041514246886094178
2055,0.1944537531139058
2056,30.0734228821347
2057,28.961598923896305
2063,36.93727757956635
2285,12.20000000000001
2286,12.20000000000001
2,1, 1,21, 0,15, 0.00,60.00,WinterDesignDay
7,-6.300000000000007
769,16.102410251336314
2050,0.0
2053,0.23596800000000005
2054,0.04143951909884588
2055,0.19452848090115414
2056,30.07577691706688
2057,28.96643166901584
2063,36.93799144470608
2285,12.20000000000001
2286,12.20000000000001
2,1, 1,21, 0,16, 0.00,60.00,WinterDesignDay
7,-6.300000000000007
769,16.164866120482786
2050,0.0
2053,0.0
2054,0.0
2055,0.0
2056,30.074267948977249
2057,30.074267948977249
2063,36.938600683233847
2285,12.20000000000001
2286,12.20000000000001
2,1, 1,21, 0,17, 0.00,60.00,WinterDesignDay
7,-6.300000000000007
769,16.15449015620159
2050,0.0
2053,0.23596800000000005
2054,0.04132637819959059
2055,0.1946416218004094
2056,30.06886881036957
2057,28.962949989999733
2063,36.939153029539898
2285,12.20000000000001
2286,12.20000000000001
2,1, 1,21, 0,18, 0.00,60.00,WinterDesignDay
7,-6.300000000000007
769,16.10443798576833
2050,0.0
2053,0.23596800000000005
2054,0.04118819621814158
2055,0.1947798037818584
2056,30.058545178902926
2057,28.956623692478048
2063,36.939654353601479
2285,12.20000000000001
2286,12.20000000000001
2,1, 1,21, 0,19, 0.00,60.00,WinterDesignDay
7,-6.300000000000007
769,16.01000307191908
2050,0.0
2053,0.9438719999999996
2054,0.13641831346379733
2055,0.8074536865362029
2056,30.35675473352932
2057,26.8738614342015
2063,36.93061216642285
2285,12.20000000000001
2286,12.20000000000001
2,1, 1,21, 0,20, 0.00,60.00,WinterDesignDay
7,-6.300000000000007
769,16.031267765783036
2050,0.0
2053,0.668576
2054,0.08961657258704504
2055,0.5789594274129549
2056,30.061804678818516
2057,27.77528950034143
2063,36.91715165087315
2285,12.20000000000001
2286,12.20000000000001
2,1, 1,21, 0,21, 0.00,60.00,WinterDesignDay
7,-6.300000000000007
769,16.02168419823646
2050,0.0
2053,0.7079039999999999
2054,0.09982443064555494
2055,0.608079569354445
2056,30.087112837461644
2057,27.519705577016969
2063,36.91093010942941
2285,12.20000000000001
2286,12.20000000000001
2,1, 1,21, 0,22, 0.00,60.00,WinterDesignDay
7,-6.300000000000007
769,16.022374028199449
2050,0.0
2053,0.7079039999999999
2054,0.09979898209609851
2055,0.6081050179039015
2056,30.079336208046749
2057,27.511998129209535
2063,36.90777650829919
2285,12.20000000000001
2286,12.20000000000001
2,1, 1,21, 0,23, 0.00,60.00,WinterDesignDay
7,-6.300000000000007
769,16.02534701534766
2050,0.0
2053,0.7472319999999999
2054,0.10487287798924204
2055,0.642359122010758
2056,30.056927827325504
2057,27.361122195309279
2063,36.90589253675081
2285,12.20000000000001
2286,12.20000000000001
2,1, 1,21, 0,24, 0.00,60.00,WinterDesignDay
7,-6.300000000000007
769,16.027411364568154
2050,0.0
2053,0.5112640000000002
2054,0.0745563828270453
2055,0.43670761717295478
2056,30.0789072593838
2057,28.152003798759343
2063,36.90455733501354
2285,12.20000000000001
2286,12.20000000000001
1,ATLANTA-HARTSFIELD.JACKSON.INTL.AP_GA_USA ANN CLG .4% CONDNS DB=>MWB,  33.63, -84.43,  -5.00, 308.00
2,1, 7,21, 0, 1, 0.00,60.00,SummerDesignDay
7,26.32025
769,21.745567444947093
2050,13059.846219895893
2053,2.3997551999999997
2054,0.9857102741431018
2055,1.4140449258568982
2056,8.876980466212054
2057,10.175027817477302
2063,28.175190917100417
2285,6.88344961403727
2286,8.235168778273002
2,1, 7,21, 0, 2, 0.00,60.00,SummerDesignDay
7,25.84683333333334
769,21.649492400142859
2050,12730.099860722115
2053,2.3997551999999997
2054,1.0200565146700056
2055,1.3796986853299947
2056,8.957590572666963
2057,10.222897794259789
2063,27.993888981699717
2285,7.119586882741276
2286,8.438567362017493
2,1, 7,21, 0, 3, 0.00,60.00,SummerDesignDay
7,25.515125
769,21.57258009918978
2050,12463.717385993881
2053,2.3997551999999997
2054,1.0423184380095625
2055,1.3574367619904376
2056,9.021860878109314
2057,10.26071764095108
2063,28.031945592366175
2285,7.284739011941207
2286,8.5772701844385
2,1, 7,21, 0, 4, 0.00,60.00,SummerDesignDay
7,25.230124999999995
769,21.504175486584736
2050,12236.944574381347
2053,2.3997551999999997
2054,1.0622491779557258
2055,1.3375060220442746
2056,9.078929143517572
2057,10.295268540966215
2063,27.810424216366717
2285,7.425962837837838
2286,8.695977667824434
2,1, 7,21, 0, 5, 0.00,60.00,SummerDesignDay
7,24.993416666666673
769,21.441146864772489
2050,12032.436314929591
2053,2.3997551999999997
2054,1.0774116321429733
2055,1.3223435678570266
2056,9.131557965772112
2057,10.327590487761479
2063,27.776274402276035
2285,7.5440276756048709
2286,8.793736573522116
2,1, 7,21, 0, 6, 0.00,60.00,SummerDesignDay
7,24.996583333333335
769,21.395326922846427
2050,11938.34187351291
2053,2.3997551999999997
2054,1.0588845404245764
2055,1.3408706595754235
2056,9.170324839710132
2057,10.357019697924521
2063,27.864861590543887
2285,7.545573915632699
2286,8.785945844724099
2,1, 7,21, 0, 7, 0.00,60.00,SummerDesignDay
7,25.42804166666666
769,21.73320235915032
2050,13573.491461355736
2053,2.3997551999999997
2054,1.1576929644068388
2055,1.2420622355931615
2056,8.894924353551192
2057,10.24403135292357
2063,30.035024402111568
2285,7.335703317964299
2286,8.738482451898582
2,1, 7,21, 0, 8, 0.00,60.00,SummerDesignDay
7,26.575958333333334
769,21.95863029029582
2050,15151.241657768818
2053,2.3997551999999997
2054,1.1108648438463054
2055,1.2888903561536947
2056,8.705081759587666
2057,10.210909694432337
2063,30.035024402111568
2285,6.840959799294428
2286,8.400456466469477
2,1, 7,21, 0, 9, 0.00,60.00,SummerDesignDay
7,28.287541666666664
769,22.26973096932592
2050,17546.005955884906
2053,2.3997551999999997
2054,1.2359968076095738
2055,1.1637583923904263
2056,8.446390775742828
2057,10.190075197336533
2063,30.035024402111568
2285,6.699999999999995
2286,8.497348518529906
2,1, 7,21, 0,10, 0.00,60.00,SummerDesignDay
7,29.995958333333328
769,22.627680205368198
2050,20286.6641867993
2053,2.3997551999999997
2054,1.4330693548786864
2055,0.966685845121314
2056,8.149589694471177
2057,10.165433501450592
2063,30.035024402111568
2285,6.699999999999993
2286,8.769502586632689
2,1, 7,21, 0,11, 0.00,60.00,SummerDesignDay
7,31.514374999999995
769,23.14210831228272
2050,24551.24515379018
2053,2.3997551999999997
2054,1.7283227823896755
2055,0.6714324176103244
2056,7.72258014460592
2057,10.161837692551016
2063,30.035024402111568
2285,6.699999999999993
2286,9.19290867947719
2,1, 7,21, 0,12, 0.00,60.00,SummerDesignDay
7,32.697916666666667
769,23.65286574683938
2050,28267.399462197813
2053,2.3997551999999997
2054,2.0182261108771297
2055,0.38152908912286989
2056,7.295434316563989
2057,10.103508627796126
2063,30.035024402111568
2285,6.699999999999993
2286,9.56171779426317
2,1, 7,21, 0,13, 0.00,60.00,SummerDesignDay
7,33.55133333333333
769,24.002491583717146
2050,30269.715504738815
2053,2.3997551999999997
2054,2.202829833878558
2055,0.19692536612144125
2056,7.027363740244339
2057,10.034081389043184
2063,30.035024402111568
2285,6.699999999999993
2286,9.76035633282647
2,1, 7,21, 0,14, 0.00,60.00,SummerDesignDay
7,34.16645833333333
769,24.158709344133017
2050,30636.016390287383
2053,2.3997551999999997
2054,2.222909401814453
2055,0.1768457981855466
2056,7.0
2057,10.04307517944405
2063,30.035024402111568
2285,6.699999999999993
2286,9.796713373651987
2,1, 7,21, 0,15, 0.00,60.00,SummerDesignDay
7,34.40000000000004
769,24.07119286369269
2050,30018.74359538027
2053,2.3997551999999997
2054,2.2164080190745767
2055,0.18334718092542305
2056,7.004622214232072
2057,9.986388164028453
2063,30.035024402111568
2285,6.699999999999993
2286,9.735404226737858
2,1, 7,21, 0,16, 0.00,60.00,SummerDesignDay
7,34.110250000000018
769,23.746796146636929
2050,27280.487811956962
2053,2.3997551999999997
2054,2.0621112408079758
2055,0.3376439591920244
2056,7.2059096729321949
2057,9.915863601036957
2063,30.035024402111568
2285,6.699999999999993
2286,9.46359580838212
2,1, 7,21, 0,17, 0.00,60.00,SummerDesignDay
7,33.44366666666667
769,23.416110607282417
2050,23905.649651462012
2053,2.3997551999999997
2054,1.845208186200384
2055,0.5545470137996157
2056,7.482739908024816
2057,9.857668423680119
2063,30.035024402111568
2285,6.699999999999993
2286,9.128575352254107
2,1, 7,21, 0,18, 0.00,60.00,SummerDesignDay
7,32.58708333333333
769,23.167645084380245
2050,21377.63446719365
2053,2.3997551999999997
2054,1.678031904956696
2055,0.7217232950433037
2056,7.6902402499940119
2057,9.814168576656416
2063,30.035024402111568
2285,6.699999999999993
2286,8.877578878971047
2,1, 7,21, 0,19, 0.00,60.00,SummerDesignDay
7,31.395624999999997
769,22.907502571152717
2050,19318.41254068527
2053,2.3997551999999997
2054,1.5147241802156518
2055,0.8850310197843482
2056,7.906663926780166
2057,9.826140965444278
2063,30.035024402111568
2285,6.699999999999993
2286,8.673131466983096
2,1, 7,21, 0,20, 0.00,60.00,SummerDesignDay
7,30.16379166666667
769,22.693214048858179
2050,17265.2933768859
2053,2.3997551999999997
2054,1.368499714446424
2055,1.0312554855535763
2056,8.086450741546786
2057,9.802033294260257
2063,30.035024402111568
2285,6.699999999999993
2286,8.469240201340979
2,1, 7,21, 0,21, 0.00,60.00,SummerDesignDay
7,29.215374999999999
769,22.523411033297124
2050,15691.99770118575
2053,2.3997551999999997
2054,1.2535401851781057
2055,1.1462150148218944
2056,8.228655302437831
2057,9.787980356520358
2063,30.035024402111568
2285,6.699999999999993
2286,8.312985250065646
2,1, 7,21, 0,22, 0.00,60.00,SummerDesignDay
7,28.360375
769,22.409551056943504
2050,15030.664120603284
2053,2.3997551999999997
2054,1.1910904386550932
2055,1.2086647613449069
2056,8.323929593266959
2057,9.817585085567778
2063,30.035024402111568
2285,6.699999999999993
2286,8.247317395126299
2,1, 7,21, 0,23, 0.00,60.00,SummerDesignDay
7,27.60195833333334
769,22.04810948457733
2050,13655.884019568302
2053,2.3997551999999997
2054,1.0334205768561656
2055,1.3663346231438345
2056,8.62092839882778
2057,9.978100906546017
2063,30.035024402111568
2285,6.699999999999993
2286,8.110839732062435
2,1, 7,21, 0,24, 0.00,60.00,SummerDesignDay
7,26.936958333333334
769,21.891257933095937
2050,13524.116629601285
2053,2.3997551999999997
2054,0.987490193289107
2055,1.412265006710893
2056,8.755635924934115
2057,10.09977370011011
2063,28.985315129056965
2285,6.7027041521533159
2286,8.100511565590548
1,RUNPERIOD 1,  33.63, -84.43,  -5.00, 308.00
2,1, 7, 1, 0, 1, 0.00,60.00,Monday
7,21.118333333333337
769,19.468012203881984
2050,9224.538708968581
2053,2.3997551999999997
2054,1.7028721850232434
2055,0.6968830149767569
2056,10.002922915800453
2057,10.920115242925089
2063,11.981270960830225
2285,9.483682634680852
2286,10.454566909393448
2,1, 7, 1, 0, 2, 0.00,60.00,Monday
7,22.098333333333334
769,19.44397216183408
2050,9414.572700075887
2053,2.3997551999999997
2054,1.2136811672372015
2055,1.186074032762798
2056,10.0
2057,10.936086562917613
2063,11.981270960830225
2285,8.978645698011276
2286,9.968424208516849
2,1, 7, 1, 0, 3, 0.00,60.00,Monday
7,21.949166666666675
769,19.38247376967322
2050,9356.565334755605
2053,2.3997551999999997
2054,1.258040895567639
2055,1.1417143044323613
2056,10.0
2057,10.930318917698179
2063,11.981270960830225
2285,9.053182680500783
2286,10.03719354578692
2,1, 7, 1, 0, 4, 0.00,60.00,Monday
7,21.79833333333333
769,19.32321785009783
2050,9213.049643764441
2053,2.3997551999999997
2054,1.3011845938840306
2055,1.0985706061159695
2056,10.0
2057,10.916049219626423
2063,11.981270960830225
2285,9.12711011229201
2286,10.0968512795064
2,1, 7, 1, 0, 5, 0.00,60.00,Monday
7,21.700000000000025
769,19.289702643363005
2050,9186.786081721382
2053,2.3997551999999997
2054,1.3369238243245268
2055,1.062831375675473
2056,10.0
2057,10.91343784592885
2063,11.981270960830225
2285,9.17746145709765
2286,10.144591250614474
2,1, 7, 1, 0, 6, 0.00,60.00,Monday
7,21.954166666666663
769,19.31019271030975
2050,9397.196807618693
2053,2.3997551999999997
2054,1.2638862585960107
2055,1.13586894140399
2056,10.0
2057,10.934358886052602
2063,12.13042809798153
2285,9.055628117218623
2286,10.043678950859182
2,1, 7, 1, 0, 7, 0.00,60.00,Monday
7,22.200000000000025
769,19.432176960848449
2050,11931.595249233216
2053,2.3997551999999997
2054,1.7188672212269132
2055,0.6808879787730867
2056,9.473643999999997
2057,10.65978838337652
2063,19.03552253106813
2285,8.929769780679277
2286,10.169596672860687
2,1, 7, 1, 0, 8, 0.00,60.00,Monday
7,23.31833333333333
769,19.574785965150217
2050,15715.079726797396
2053,2.3997551999999997
2054,2.361620693391358
2055,0.03813450660864278
2056,8.475496608961457
2057,10.03724189922331
2063,10.158664602150113
2285,8.393592544590764
2286,10.008996633001623
2,1, 7, 1, 0, 9, 0.00,60.00,Monday
7,25.823333333333335
769,20.390936005730194
2050,16370.014167330593
2053,2.3997551999999997
2054,1.7287895293737077
2055,0.6709656706262929
2056,7.942782980000003
2057,9.569328064305113
2063,9.880553066298186
2285,7.177778821195636
2286,8.857978980966573
2,1, 7, 1, 0,10, 0.00,60.00,Monday
7,27.759166666666667
769,21.005596161803177
2050,18894.34214858862
2053,2.3997551999999997
2054,1.5810509215599398
2055,0.8187042784400596
2056,7.7530224700000069
2057,9.630269015034987
2063,9.880553066298186
2285,6.700000005584965
2286,8.630898227209008
2,1, 7, 1, 0,11, 0.00,60.00,Monday
7,29.164166666666668
769,21.507781740308198
2050,20417.008854747175
2053,2.3997551999999997
2054,1.5123909075758302
2055,0.8873642924241699
2056,7.973479569999996
2057,10.002159875282074
2063,9.880553066298186
2285,6.699999999999993
2286,8.782335929994094
2,1, 7, 1, 0,12, 0.00,60.00,Monday
7,30.0
769,22.12440572546177
2050,25168.86029145451
2053,2.3997551999999997
2054,1.8362735641887827
2055,0.5634816358112168
2056,7.537264400000011
2057,10.03773533982332
2063,9.880553066298186
2285,6.699999999999993
2286,9.2541187527107
2,1, 7, 1, 0,13, 0.00,60.00,Monday
7,30.86416666666667
769,22.550465873983325
2050,14648.44596591778
2053,2.31976336
2054,0.6087534500273143
2055,1.7110099099726857
2056,10.97818973000001
2057,12.435085917065669
2063,9.880553066298186
2285,6.699999999999993
2286,8.208812944066223
2,1, 7, 1, 0,14, 0.00,60.00,Monday
7,29.717500000000006
769,22.926188503371713
2050,19203.692899785026
2053,2.3997551999999997
2054,0.696105189975764
2055,1.7036500100242358
2056,11.557916350000017
2057,13.468182680381109
2063,9.880553066298186
2285,6.699999999999993
2286,8.663982239284099
2,1, 7, 1, 0,15, 0.00,60.00,Monday
7,28.613333333333335
769,22.943578777644455
2050,22048.72860235573
2053,2.3997551999999997
2054,0.8576808511462634
2055,1.542074348853737
2056,10.78842143999999
2057,12.98121122329113
2063,9.880553066298186
2285,6.699999999999993
2286,8.946493854139498
2,1, 7, 1, 0,16, 0.00,60.00,Monday
7,28.0275
769,22.761710395640816
2050,17515.528555331228
2053,2.3997551999999997
2054,0.684115773945286
2055,1.7156394260547153
2056,11.257147639999982
2057,12.999335579837926
2063,9.880553066298186
2285,6.699999999999993
2286,8.495899221489556
2,1, 7, 1, 0,17, 0.00,60.00,Monday
7,25.276666666666665
769,22.437096727391528
2050,13620.301853090301
2053,2.3997551999999997
2054,0.5786534017369734
2055,1.8211017982630267
2056,11.90011783
2057,13.255115272080392
2063,9.880553066298186
2285,7.3823564174495959
2286,8.791075034480113
2,1, 7, 1, 0,18, 0.00,60.00,Monday
7,23.594999999999997
769,21.443681355219959
2050,16191.118746416785
2053,2.3997551999999997
2054,0.9364797169920746
2055,1.4632754830079256
2056,10.868865160000006
2057,12.479141130861354
2063,9.880553066298186
2285,8.233382334380554
2286,9.89736361355839
2,1, 7, 1, 0,19, 0.00,60.00,Monday
7,23.604999999999995
769,20.715639924850465
2050,15592.452188507175
2053,2.3997551999999997
2054,1.1589898438769109
2055,1.2407653561230892
2056,10.0
2057,11.550350232727953
2063,16.259379754371698
2285,8.2384173912346
2286,9.842459571550512
2,1, 7, 1, 0,20, 0.00,60.00,Monday
7,21.917500000000005
769,20.244990854193817
2050,12359.2911094358
2053,2.3997551999999997
2054,1.5751497197557579
2055,0.8246054802442423
2056,9.925035535854862
2057,11.153882939040319
2063,28.506910009969045
2285,9.03786045854592
2286,10.320398377752517
2,1, 7, 1, 0,21, 0.00,60.00,Monday
7,20.304999999999994
769,19.96732062405505
2050,5727.235660316339
2053,2.3997551999999997
2054,0.7620380909048846
2055,1.6377171090951153
2056,11.218353429999988
2057,11.788008521660569
2063,28.200099616782788
2285,9.873288190102727
2286,10.496653966593004
2,1, 7, 1, 0,22, 0.00,60.00,Monday
7,20.294999999999996
769,19.822066071844057
2050,11605.270711049885
2053,2.3997551999999997
2054,2.221867721863638
2055,0.17788747813636175
2056,10.032168680614963
2057,11.186085751945447
2063,25.050895296351987
2285,9.868789815972605
2286,11.076399284392743
2,1, 7, 1, 0,23, 0.00,60.00,Monday
7,20.0
769,19.641402823632505
2050,8634.37856085231
2053,2.3997551999999997
2054,2.3997551999999997
2055,0.0
2056,10.073463706268316
2057,10.931993985384244
2063,11.980729982480322
2285,10.01977175868037
2286,10.931993985384244
2,1, 7, 1, 0,24, 0.00,60.00,Monday
7,20.0
769,19.562815836279289
2050,8762.127486427762
2053,2.3997551999999997
2054,2.3997551999999997
2055,0.0
2056,10.073511767407773
2057,10.944744341714966
2063,11.980729982480322
2285,10.019819819819825
2286,10.944744341714966
2,2, 7, 2, 0, 1, 0.00,60.00,Tuesday
7,20.0
769,19.50601972892923
2050,6675.686709691557
2053,2.3997551999999997
2054,1.2298631175434663
2055,1.1698920824565338
2056,10.74470807032795
2057,11.408609976779406
2063,11.980729982480322
2285,10.019819819819825
2286,10.737425125086599
2,2, 7, 2, 0, 2, 0.00,60.00,Tuesday
7,20.0
769,19.499532591062278
2050,8222.160501439806
2053,2.3997551999999997
2054,1.3510481245786293
2055,1.04870707542137
2056,10.749947661075469
2057,11.567648833081034
2063,11.980729982480322
2285,10.019819819819825
2286,10.891224471181572
2,2, 7, 2, 0, 3, 0.00,60.00,Tuesday
7,19.440833333333335
769,19.438468892916217
2050,8051.014494784531
2053,2.3997551999999997
2054,1.5791349136804356
2055,0.8206202863195647
2056,10.799964391302892
2057,11.600656309622933
2063,11.980729982480322
2285,10.287888412389302
2286,11.142284579407317
2,2, 7, 2, 0, 4, 0.00,60.00,Tuesday
7,19.154166666666666
769,19.358752122695173
2050,7645.687273696865
2053,2.3997551999999997
2054,1.656983356379039
2055,0.7427718436209607
2056,10.866992207536092
2057,11.627388054361962
2063,11.980729982480322
2285,10.442927392517005
2286,11.257028518942749
2,2, 7, 2, 0, 5, 0.00,60.00,Tuesday
7,19.399999999999996
769,19.315096609327929
2050,7338.1665875117919
2053,2.3997551999999997
2054,1.4285606708415673
2055,0.9711945291584336
2056,10.903573320594523
2057,11.633392600351156
2063,11.980729982480322
2285,10.31715716806667
2286,11.100682290108763
2,2, 7, 2, 0, 6, 0.00,60.00,Tuesday
7,19.399999999999996
769,19.302240061725017
2050,7323.434880725329
2053,2.3997551999999997
2054,1.4151797507710816
2055,0.9845754492289192
2056,10.914916551105696
2057,11.64327306262689
2063,11.980729982480322
2285,10.31711711711712
2286,11.09917964535856
2,2, 7, 2, 0, 7, 0.00,60.00,Tuesday
7,19.705
769,19.433841087744378
2050,7902.828076003528
2053,2.3997551999999997
2054,1.4161517521398166
2055,0.9836034478601833
2056,10.808527434278624
2057,11.594483413083142
2063,12.122537463490082
2285,10.17089788480649
2286,11.010558244027841
2,2, 7, 2, 0, 8, 0.00,60.00,Tuesday
7,21.118333333333337
769,19.791789720613079
2050,10582.170361260427
2053,2.3997551999999997
2054,1.2896131833202967
2055,1.1101420166797032
2056,10.512184620372582
2057,11.564517013877458
2063,11.98265379021641
2285,9.48373069582031
2286,10.589762912197262
2,2, 7, 2, 0, 9, 0.00,60.00,Tuesday
7,23.62333333333333
769,20.77926508852253
2050,15337.152291683224
2053,2.3997551999999997
2054,1.2775506343740786
2055,1.1222045656259213
2056,9.699688004496
2057,11.224492997608849
2063,11.841826240646022
2285,8.247549536458142
2286,9.826041024954949
2,2, 7, 2, 0,10, 0.00,60.00,Tuesday
7,25.55916666666667
769,21.243725429307298
2050,16867.30116868355
2053,2.3997551999999997
2054,1.121088330277484
2055,1.2786668697225168
2056,9.301929582607308
2057,10.97864473575038
2063,11.841826240646022
2285,7.274498035090321
2286,9.004892618373824
2,2, 7, 2, 0,11, 0.00,60.00,Tuesday
7,26.65916666666666
769,21.672104002964184
2050,20039.057555625925
2053,2.3997551999999997
2054,1.1808139148478579
2055,1.2189412851521413
2056,8.946421867316785
2057,10.93819090510495
2063,11.841826240646022
2285,6.783661685662575
2286,8.829103781029776
2,2, 7, 2, 0,12, 0.00,60.00,Tuesday
7,28.06416666666667
769,22.150067473460813
2050,23310.724284598255
2053,2.3997551999999997
2054,1.3663747018652435
2055,1.0333804981347564
2056,8.547983469014089
2057,10.864631332725559
2063,11.841826240646022
2285,6.699999999999993
2286,9.070313781006045
2,2, 7, 2, 0,13, 0.00,60.00,Tuesday
7,29.459166666666666
769,22.25820424990462
2050,24354.589344426833
2053,2.3997551999999997
2054,1.4230753275325674
2055,0.9766798724674324
2056,8.451413393978179
2057,10.871726231741786
2063,11.841826240646022
2285,6.699999999999993
2286,9.173977024640824
2,2, 7, 2, 0,14, 0.00,60.00,Tuesday
7,29.440833333333328
769,22.6684508963696
2050,26477.517143721765
2053,2.3997551999999997
2054,1.593109796767607
2055,0.8066454032323928
2056,8.114288232667106
2057,10.745277563265919
2063,11.841826240646022
2285,6.699999999999993
2286,9.384647477895994
2,2, 7, 2, 0,15, 0.00,60.00,Tuesday
7,29.76416666666667
769,22.605882090125076
2050,24909.22012553025
2053,2.3997551999999997
2054,1.541989888907567
2055,0.8577653110924334
2056,8.160269684528802
2057,10.635460402386798
2063,11.841826240646022
2285,6.699999999999993
2286,9.228849688761962
2,2, 7, 2, 0,16, 0.00,60.00,Tuesday
7,30.854166666666669
769,22.539719882670356
2050,23582.77364154026
2053,2.3997551999999997
2054,1.4906132563530279
2055,0.9091419436469724
2056,8.215084254417688
2057,10.558510317258574
2063,11.841826240646022
2285,6.699999999999993
2286,9.097086015694656
2,2, 7, 2, 0,17, 0.00,60.00,Tuesday
7,30.84583333333334
769,22.35979487554714
2050,21237.472499604533
2053,2.3997551999999997
2054,1.375726322718108
2055,1.0240288772818929
2056,8.364217295050626
2057,10.474695177954207
2063,11.841826240646022
2285,6.699999999999993
2286,8.864140507581704
2,2, 7, 2, 0,18, 0.00,60.00,Tuesday
7,30.59999999999997
769,21.603643601350293
2050,17586.82035800776
2053,2.3997551999999997
2054,1.0741757292246908
2055,1.325579470775309
2056,8.98468733503395
2057,10.73274038932689
2063,11.841826240646022
2285,6.699999999999993
2286,8.501726797817442
2,2, 7, 2, 0,19, 0.00,60.00,Tuesday
7,29.430833333333337
769,21.026064302877374
2050,15543.076281726619
2053,2.3997551999999997
2054,0.8898514308526769
2055,1.5099037691473226
2056,9.470116505594948
2057,11.015280847517339
2063,15.185841505462899
2285,6.699999999999993
2286,8.298846787413341
2,2, 7, 2, 0,20, 0.00,60.00,Tuesday
7,26.927500000000003
769,20.583653474117204
2050,13015.151044183307
2053,2.3997551999999997
2054,0.7468186780689159
2055,1.6529365219310844
2056,9.841168216853902
2057,11.135187266207727
2063,30.004881702176428
2285,6.806747806659074
2286,8.154455953746059
2,2, 7, 2, 0,21, 0.00,60.00,Tuesday
7,24.430833333333334
769,20.188425223890595
2050,10406.494541754953
2053,2.3997551999999997
2054,0.7708035625547691
2055,1.628951637445231
2056,10.171715744855906
2057,11.206478281541349
2063,29.85274692931999
2285,7.805335827108237
2286,8.893792951404003
2,2, 7, 2, 0,22, 0.00,60.00,Tuesday
7,23.045833333333339
769,19.977477520163075
2050,9205.481310158259
2053,2.3997551999999997
2054,0.8428644516495127
2055,1.556890748350487
2056,10.350822593748005
2057,11.26621117360221
2063,25.89183358197697
2285,8.506349810575625
2286,9.475435731882217
2,2, 7, 2, 0,23, 0.00,60.00,Tuesday
7,22.494999999999999
769,19.89806563303492
2050,8773.340978900436
2053,2.3997551999999997
2054,0.8856064235514338
2055,1.514148776448566
2056,10.41690605205041
2057,11.289339290950352
2063,12.673794500005782
2285,8.778611613793512
2286,9.704743210350865
2,2, 7, 2, 0,24, 0.00,60.00,Tuesday
7,21.640833333333334
769,19.788478752952288
2050,8197.700399416395
2053,2.3997551999999997
2054,0.9844071578159694
2055,1.4153480421840306
2056,10.507944954591185
2057,11.323156896165602
2063,11.974452306812593
2285,9.197750261159757
2286,10.066661960332425
End of Data
 Number of Records Written=        1056
