Program Version,EnergyPlus, Version 9.4.0-998c4b761e, YMD=2021.07.15 12:55
1,5,Environment Title[],Latitude[deg],Longitude[deg],Time Zone[],Elevation[m]
2,8,Day of Simulation[],Month[],Day of Month[],DST Indicator[1=yes 0=no],Hour[],StartMinute[],EndMinute[],DayType
3,5,Cumulative Day of Simulation[],Month[],Day of Month[],DST Indicator[1=yes 0=no],DayType  ! When Daily Meters Requested
4,2,Cumulative Days of Simulation[],Month[]  ! When Monthly Meters Requested
5,1,Cumulative Days of Simulation[] ! When Run Period Meters Requested
6,1,Calendar Year of Simulation[] ! When Annual Meters Requested
59,1,Electricity:Facility [J] !Hourly
1716,1,ElectricityNet:Facility [J] !Hourly
95,1,InteriorLights:Electricity [J] !Hourly
512,1,InteriorEquipment:Electricity [J] !Hourly
End of Data Dictionary
1,ATLANTA-HARTSFIELD.JACKSON.INTL.AP_GA_USA ANN HTG 99.6% CONDNS DB,  33.63, -84.43,  -5.00, 308.00
2,1, 1,21, 0, 1, 0.00,60.00,WinterDesignDay
59,118593865.79698122
95,0.0
512,0.0
1716,118593865.79698122
2,1, 1,21, 0, 2, 0.00,60.00,WinterDesignDay
59,118701865.7969812
95,0.0
512,0.0
1716,118701865.7969812
2,1, 1,21, 0, 3, 0.00,60.00,WinterDesignDay
59,118809865.7969812
95,0.0
512,0.0
1716,118809865.7969812
2,1, 1,21, 0, 4, 0.00,60.00,WinterDesignDay
59,118809865.7969812
95,0.0
512,0.0
1716,118809865.7969812
2,1, 1,21, 0, 5, 0.00,60.00,WinterDesignDay
59,118773865.79698122
95,0.0
512,0.0
1716,118773865.79698122
2,1, 1,21, 0, 6, 0.00,60.00,WinterDesignDay
59,118737865.79698122
95,0.0
512,0.0
1716,118737865.79698122
2,1, 1,21, 0, 7, 0.00,60.00,WinterDesignDay
59,128558125.79698117
95,0.0
512,0.0
1716,128558125.79698117
2,1, 1,21, 0, 8, 0.00,60.00,WinterDesignDay
59,123809275.79698117
95,0.0
512,0.0
1716,123809275.79698117
2,1, 1,21, 0, 9, 0.00,60.00,WinterDesignDay
59,109886725.79698122
95,0.0
512,0.0
1716,109886725.79698122
2,1, 1,21, 0,10, 0.00,60.00,WinterDesignDay
59,109670725.79698122
95,0.0
512,0.0
1716,109670725.79698122
2,1, 1,21, 0,11, 0.00,60.00,WinterDesignDay
59,109886725.79698122
95,0.0
512,0.0
1716,109886725.79698122
2,1, 1,21, 0,12, 0.00,60.00,WinterDesignDay
59,109886725.79698122
95,0.0
512,0.0
1716,109886725.79698122
2,1, 1,21, 0,13, 0.00,60.00,WinterDesignDay
59,109670725.79698122
95,0.0
512,0.0
1716,109670725.79698122
2,1, 1,21, 0,14, 0.00,60.00,WinterDesignDay
59,109886725.79698122
95,0.0
512,0.0
1716,109886725.79698122
2,1, 1,21, 0,15, 0.00,60.00,WinterDesignDay
59,109886725.79698122
95,0.0
512,0.0
1716,109886725.79698122
2,1, 1,21, 0,16, 0.00,60.00,WinterDesignDay
59,109670725.79698122
95,0.0
512,0.0
1716,109670725.79698122
2,1, 1,21, 0,17, 0.00,60.00,WinterDesignDay
59,109886725.79698122
95,0.0
512,0.0
1716,109886725.79698122
2,1, 1,21, 0,18, 0.00,60.00,WinterDesignDay
59,112400245.79698122
95,0.0
512,0.0
1716,112400245.79698122
2,1, 1,21, 0,19, 0.00,60.00,WinterDesignDay
59,129386125.79698117
95,0.0
512,0.0
1716,129386125.79698117
2,1, 1,21, 0,20, 0.00,60.00,WinterDesignDay
59,121319245.7969812
95,0.0
512,0.0
1716,121319245.79698117
2,1, 1,21, 0,21, 0.00,60.00,WinterDesignDay
59,121355245.7969812
95,0.0
512,0.0
1716,121355245.79698117
2,1, 1,21, 0,22, 0.00,60.00,WinterDesignDay
59,121355245.7969812
95,0.0
512,0.0
1716,121355245.79698117
2,1, 1,21, 0,23, 0.00,60.00,WinterDesignDay
59,121391245.7969812
95,0.0
512,0.0
1716,121391245.79698117
2,1, 1,21, 0,24, 0.00,60.00,WinterDesignDay
59,121175245.7969812
95,0.0
512,0.0
1716,121175245.79698117
1,ATLANTA-HARTSFIELD.JACKSON.INTL.AP_GA_USA ANN CLG .4% CONDNS DB=>MWB,  33.63, -84.43,  -5.00, 308.00
2,1, 7,21, 0, 1, 0.00,60.00,SummerDesignDay
59,524588952.2496431
95,152517470.7542746
512,224813060.55296675
1716,524588952.2496431
2,1, 7,21, 0, 2, 0.00,60.00,SummerDesignDay
59,526763061.70431759
95,152517470.7542746
512,224813060.55296675
1716,526763061.70431759
2,1, 7,21, 0, 3, 0.00,60.00,SummerDesignDay
59,527105061.70431759
95,152517470.7542746
512,224813060.55296675
1716,527105061.70431759
2,1, 7,21, 0, 4, 0.00,60.00,SummerDesignDay
59,527213061.70431759
95,152517470.7542746
512,224813060.55296675
1716,527213061.70431759
2,1, 7,21, 0, 5, 0.00,60.00,SummerDesignDay
59,527345061.70431759
95,152517470.7542746
512,224813060.55296675
1716,527345061.70431759
2,1, 7,21, 0, 6, 0.00,60.00,SummerDesignDay
59,525152657.46271857
95,152399851.51267544
512,224813060.55296675
1716,525152657.46271857
2,1, 7,21, 0, 7, 0.00,60.00,SummerDesignDay
59,492405617.5909869
95,129723979.24717574
512,224813060.55296675
1716,492405617.5909869
2,1, 7,21, 0, 8, 0.00,60.00,SummerDesignDay
59,485668868.49976739
95,120394417.54972403
512,224813060.55296675
1716,485668868.49976739
2,1, 7,21, 0, 9, 0.00,60.00,SummerDesignDay
59,467583948.1110862
95,119991185.40467149
512,224813060.55296675
1716,467583948.1110862
2,1, 7,21, 0,10, 0.00,60.00,SummerDesignDay
59,466350541.80796989
95,119991185.40467149
512,224813060.55296675
1716,466350541.80796989
2,1, 7,21, 0,11, 0.00,60.00,SummerDesignDay
59,466350541.80796989
95,119991185.40467149
512,224813060.55296675
1716,466350541.80796989
2,1, 7,21, 0,12, 0.00,60.00,SummerDesignDay
59,466350541.80796989
95,119991185.40467149
512,224813060.55296675
1716,466350541.80796989
2,1, 7,21, 0,13, 0.00,60.00,SummerDesignDay
59,466350541.80796989
95,119991185.40467149
512,224813060.55296675
1716,466350541.80796989
2,1, 7,21, 0,14, 0.00,60.00,SummerDesignDay
59,466350541.80796989
95,119991185.40467149
512,224813060.55296675
1716,466350541.80796989
2,1, 7,21, 0,15, 0.00,60.00,SummerDesignDay
59,466404541.80796989
95,119991185.40467149
512,224813060.55296675
1716,466404541.80796989
2,1, 7,21, 0,16, 0.00,60.00,SummerDesignDay
59,466380541.80796989
95,119991185.40467149
512,224813060.55296675
1716,466380541.80796989
2,1, 7,21, 0,17, 0.00,60.00,SummerDesignDay
59,466392541.80796989
95,119991185.40467149
512,224813060.55296675
1716,466392541.80796989
2,1, 7,21, 0,18, 0.00,60.00,SummerDesignDay
59,466432797.5763722
95,120025441.17307365
512,224813060.55296675
1716,466432797.5763722
2,1, 7,21, 0,19, 0.00,60.00,SummerDesignDay
59,468874653.9641346
95,122515297.56083551
512,224813060.55296675
1716,468874653.9641346
2,1, 7,21, 0,20, 0.00,60.00,SummerDesignDay
59,496551810.21378317
95,146697555.81048496
512,224813060.55296675
1716,496551810.2137832
2,1, 7,21, 0,21, 0.00,60.00,SummerDesignDay
59,509913347.15757277
95,152517470.7542746
512,224813060.55296675
1716,509913347.15757277
2,1, 7,21, 0,22, 0.00,60.00,SummerDesignDay
59,509913347.15757277
95,152517470.7542746
512,224813060.55296675
1716,509913347.15757277
2,1, 7,21, 0,23, 0.00,60.00,SummerDesignDay
59,509913347.15757277
95,152517470.7542746
512,224813060.55296675
1716,509913347.15757277
2,1, 7,21, 0,24, 0.00,60.00,SummerDesignDay
59,518020488.12782886
95,152517470.7542746
512,224813060.55296675
1716,518020488.12782886
1,RUNPERIOD 1,  33.63, -84.43,  -5.00, 308.00
2,1, 7, 1, 0, 1, 0.00,60.00,Monday
59,66052599.94927119
95,7625873.53771374
512,44533202.00181081
1716,66052599.94927119
2,1, 7, 1, 0, 2, 0.00,60.00,Monday
59,74332401.38109155
95,7625873.53771374
512,44533202.00181081
1716,74332401.38109155
2,1, 7, 1, 0, 3, 0.00,60.00,Monday
59,73814913.79160276
95,7625873.53771374
512,44533202.00181081
1716,73814913.79160276
2,1, 7, 1, 0, 4, 0.00,60.00,Monday
59,74849888.97058028
95,7625873.53771374
512,44533202.00181081
1716,74849888.97058028
2,1, 7, 1, 0, 5, 0.00,60.00,Monday
59,79507277.27597925
95,7625873.53771374
512,44533202.00181081
1716,79507277.27597925
2,1, 7, 1, 0, 6, 0.00,60.00,Monday
59,85278398.79831031
95,14835019.70208967
512,44533202.00181081
1716,85278398.79831033
2,1, 7, 1, 0, 7, 0.00,60.00,Monday
59,104061837.12025188
95,10806640.641844433
512,55180531.87831209
1716,104061837.12025188
2,1, 7, 1, 0, 8, 0.00,60.00,Monday
59,266157797.4914322
95,31270023.132256438
512,95796493.41677362
1716,266157797.491432
2,1, 7, 1, 0, 9, 0.00,60.00,Monday
59,438029378.01016077
95,93124323.85391505
512,204227663.7591696
1716,438029378.01016077
2,1, 7, 1, 0,10, 0.00,60.00,Monday
59,392806996.8056869
95,93124323.85391505
512,174055806.61631225
1716,392806996.8056869
2,1, 7, 1, 0,11, 0.00,60.00,Monday
59,381763690.05682238
95,93124323.85391505
512,167093070.3525762
1716,381763690.05682238
2,1, 7, 1, 0,12, 0.00,60.00,Monday
59,388726426.32055887
95,93124323.85391505
512,174055806.61631225
1716,388726426.32055887
2,1, 7, 1, 0,13, 0.00,60.00,Monday
59,392480553.7026286
95,93124323.85391505
512,177667514.30607493
1716,392480553.70262977
2,1, 7, 1, 0,14, 0.00,60.00,Monday
59,394540706.5403393
95,93124323.85391505
512,179858086.83609239
1716,394540706.5403393
2,1, 7, 1, 0,15, 0.00,60.00,Monday
59,381763690.05682238
95,93124323.85391505
512,167093070.3525762
1716,381763690.05682238
2,1, 7, 1, 0,16, 0.00,60.00,Monday
59,381773357.5707994
95,93133991.36789204
512,167093070.3525762
1716,381773357.5707994
2,1, 7, 1, 0,17, 0.00,60.00,Monday
59,393388040.5959858
95,94304569.99747429
512,177537174.74818046
1716,393388040.5959858
2,1, 7, 1, 0,18, 0.00,60.00,Monday
59,318789799.27613708
95,52897696.51907077
512,140923939.57316477
1716,318789799.27613708
2,1, 7, 1, 0,19, 0.00,60.00,Monday
59,242849905.87763603
95,33000511.074774714
512,69106004.40578471
1716,242849905.87763603
2,1, 7, 1, 0,20, 0.00,60.00,Monday
59,242600670.24348632
95,38899677.792273219
512,59822356.054136309
1716,242600670.24348632
2,1, 7, 1, 0,21, 0.00,60.00,Monday
59,238836210.3469455
95,26303943.895732464
512,59822356.054136309
1716,238836210.3469455
2,1, 7, 1, 0,22, 0.00,60.00,Monday
59,118392772.57065498
95,26303943.895732464
512,55180531.87831209
1716,118392772.57065498
2,1, 7, 1, 0,23, 0.00,60.00,Monday
59,114917688.42627368
95,13151971.947866232
512,55180531.87831209
1716,114917688.42627372
2,1, 7, 1, 0,24, 0.00,60.00,Monday
59,93720049.94665514
95,6575985.973933116
512,55180531.87831209
1716,93720049.94665514
2,2, 7, 2, 0, 1, 0.00,60.00,Tuesday
59,66052599.94927119
95,7625873.53771374
512,44533202.00181081
1716,66052599.94927119
2,2, 7, 2, 0, 2, 0.00,60.00,Tuesday
59,73814913.79160279
95,7625873.53771374
512,44533202.00181081
1716,73814913.79160279
2,2, 7, 2, 0, 3, 0.00,60.00,Tuesday
59,73297426.20211399
95,7625873.53771374
512,44533202.00181081
1716,73297426.20211399
2,2, 7, 2, 0, 4, 0.00,60.00,Tuesday
59,74332401.3810915
95,7625873.53771374
512,44533202.00181081
1716,74332401.3810915
2,2, 7, 2, 0, 5, 0.00,60.00,Tuesday
59,77954814.50751294
95,7625873.53771374
512,44533202.00181081
1716,77954814.50751294
2,2, 7, 2, 0, 6, 0.00,60.00,Tuesday
59,80490250.27676036
95,15251747.07542748
512,44533202.00181081
1716,80490250.27676036
2,2, 7, 2, 0, 7, 0.00,60.00,Tuesday
59,101950569.94892279
95,12100348.64949286
512,55180531.87831209
1716,101950569.94892279
2,2, 7, 2, 0, 8, 0.00,60.00,Tuesday
59,265908358.82255198
95,31140584.46337594
512,95796493.41677362
1716,265908358.82255198
2,2, 7, 2, 0, 9, 0.00,60.00,Tuesday
59,438011378.01016077
95,93124323.85391505
512,204227663.7591696
1716,438011378.01016077
2,2, 7, 2, 0,10, 0.00,60.00,Tuesday
59,407623520.86730369
95,93124323.85391505
512,174055806.61631225
1716,407623520.86730369
2,2, 7, 2, 0,11, 0.00,60.00,Tuesday
59,400636784.6035683
95,93124323.85391505
512,167093070.3525762
1716,400636784.6035683
2,2, 7, 2, 0,12, 0.00,60.00,Tuesday
59,402848247.23061749
95,93124323.85391505
512,174055806.61631225
1716,402848247.23061749
2,2, 7, 2, 0,13, 0.00,60.00,Tuesday
59,406519954.92038
95,93124323.85391505
512,177667514.30607493
1716,406519954.92038056
2,2, 7, 2, 0,14, 0.00,60.00,Tuesday
59,394534706.5403393
95,93124323.85391505
512,179858086.83609239
1716,394534706.5403393
2,2, 7, 2, 0,15, 0.00,60.00,Tuesday
59,381763690.05682238
95,93124323.85391505
512,167093070.3525762
1716,381763690.05682238
2,2, 7, 2, 0,16, 0.00,60.00,Tuesday
59,381763690.05682238
95,93124323.85391505
512,167093070.3525762
1716,381763690.05682238
2,2, 7, 2, 0,17, 0.00,60.00,Tuesday
59,392207794.4524274
95,93124323.85391505
512,177537174.74818046
1716,392207794.4524275
2,2, 7, 2, 0,18, 0.00,60.00,Tuesday
59,314327398.0006396
95,51749162.5771431
512,140923939.57316477
1716,314327398.0006397
2,2, 7, 2, 0,19, 0.00,60.00,Tuesday
59,225038618.30098165
95,31563153.862853268
512,69106004.40578471
1716,225038618.3009816
2,2, 7, 2, 0,20, 0.00,60.00,Tuesday
59,240108642.60576929
95,37421650.15455603
512,59822356.054136309
1716,240108642.60576926
2,2, 7, 2, 0,21, 0.00,60.00,Tuesday
59,237882210.3469455
95,26303943.895732464
512,59822356.054136309
1716,237882210.3469455
2,2, 7, 2, 0,22, 0.00,60.00,Tuesday
59,126264623.64452024
95,26303943.895732464
512,55180531.87831209
1716,126264623.64452024
2,2, 7, 2, 0,23, 0.00,60.00,Tuesday
59,116105688.42627368
95,13151971.947866232
512,55180531.87831209
1716,116105688.4262737
2,2, 7, 2, 0,24, 0.00,60.00,Tuesday
59,98894925.84154283
95,6575985.973933116
512,55180531.87831209
1716,98894925.84154283
End of Data
 Number of Records Written=         384
