Program Version,EnergyPlus, Version 9.4.0-998c4b761e, YMD=2021.07.09 13:34
1,5,Environment Title[],Latitude[deg],Longitude[deg],Time Zone[],Elevation[m]
2,8,Day of Simulation[],Month[],Day of Month[],DST Indicator[1=yes 0=no],Hour[],StartMinute[],EndMinute[],DayType
3,5,Cumulative Day of Simulation[],Month[],Day of Month[],DST Indicator[1=yes 0=no],DayType  ! When Daily Report Variables Requested
4,2,Cumulative Days of Simulation[],Month[]  ! When Monthly Report Variables Requested
5,1,Cumulative Days of Simulation[] ! When Run Period Report Variables Requested
6,1,Calendar Year of Simulation[] ! When Annual Report Variables Requested
7,1,Environment,Site Outdoor Air Drybulb Temperature [C] !Hourly
769,1,PERIMETER_TOP_ZN_1,Zone Mean Air Temperature [C] !Hourly
2050,1,PERI1_TOP_LOTEMP,Zone Radiant HVAC Cooling Rate [W] !Hourly
2053,1,PERI1_TOP_LOTEMP,Zone Radiant HVAC Mass Flow Rate [kg/s] !Hourly
2054,1,PERI1_TOP_LOTEMP,Zone Radiant HVAC Injection Mass Flow Rate [kg/s] !Hourly
2055,1,PERI1_TOP_LOTEMP,Zone Radiant HVAC Recirculation Mass Flow Rate [kg/s] !Hourly
2056,1,PERI1_TOP_LOTEMP,Zone Radiant HVAC Inlet Temperature [C] !Hourly
2057,1,PERI1_TOP_LOTEMP,Zone Radiant HVAC Outlet Temperature [C] !Hourly
2063,1,PERI2_TOP_LOTEMP,Zone Radiant HVAC Outlet Temperature [C] !Hourly
2285,1,PERI1_TOP_LOTEMP_CHW_INLET,System Node Temperature [C] !Hourly
2286,1,PERI1_TOP_LOTEMP_CHW_OUTLET,System Node Temperature [C] !Hourly
End of Data Dictionary
1,ATLANTA-HARTSFIELD.JACKSON.INTL.AP_GA_USA ANN HTG 99.6% CONDNS DB,  33.63, -84.43,  -5.00, 308.00
2,1, 1,21, 0, 1, 0.00,60.00,WinterDesignDay
7,-6.300000000000007
769,18.97330881658306
2050,0.0
2053,0.0
2054,0.0
2055,0.0
2056,15.0
2057,15.0
2063,20.5350050037807
2285,12.20000000000001
2286,12.20000000000001
2,1, 1,21, 0, 2, 0.00,60.00,WinterDesignDay
7,-6.300000000000007
769,18.98414778210109
2050,0.0
2053,0.0
2054,0.0
2055,0.0
2056,15.0
2057,15.0
2063,22.048293504953738
2285,12.20000000000001
2286,12.20000000000001
2,1, 1,21, 0, 3, 0.00,60.00,WinterDesignDay
7,-6.300000000000007
769,18.9714434845395
2050,0.0
2053,0.0
2054,0.0
2055,0.0
2056,15.0
2057,15.0
2063,22.047213994514644
2285,12.20000000000001
2286,12.20000000000001
2,1, 1,21, 0, 4, 0.00,60.00,WinterDesignDay
7,-6.300000000000007
769,18.978323505350209
2050,0.0
2053,0.0
2054,0.0
2055,0.0
2056,15.0
2057,15.0
2063,20.79359518723688
2285,12.20000000000001
2286,12.20000000000001
2,1, 1,21, 0, 5, 0.00,60.00,WinterDesignDay
7,-6.300000000000007
769,18.97908595058893
2050,0.0
2053,0.0
2054,0.0
2055,0.0
2056,15.0
2057,15.0
2063,20.793244906646117
2285,12.20000000000001
2286,12.20000000000001
2,1, 1,21, 0, 6, 0.00,60.00,WinterDesignDay
7,-6.300000000000007
769,18.972901536260573
2050,0.0
2053,0.0
2054,0.0
2055,0.0
2056,15.0
2057,15.0
2063,22.046040282473965
2285,12.20000000000001
2286,12.20000000000001
2,1, 1,21, 0, 7, 0.00,60.00,WinterDesignDay
7,-6.300000000000007
769,19.041570779655033
2050,0.0
2053,0.0
2054,0.0
2055,0.0
2056,15.0
2057,15.0
2063,23.075936241203679
2285,12.20000000000001
2286,12.20000000000001
2,1, 1,21, 0, 8, 0.00,60.00,WinterDesignDay
7,-6.300000000000007
769,18.979051641653123
2050,0.0
2053,0.0
2054,0.0
2055,0.0
2056,15.0
2057,15.0
2063,22.788797976990805
2285,12.20000000000001
2286,12.20000000000001
2,1, 1,21, 0, 9, 0.00,60.00,WinterDesignDay
7,-6.300000000000007
769,18.992536808599679
2050,0.0
2053,0.0
2054,0.0
2055,0.0
2056,15.0
2057,15.0
2063,22.557895824943289
2285,12.20000000000001
2286,12.20000000000001
2,1, 1,21, 0,10, 0.00,60.00,WinterDesignDay
7,-6.300000000000007
769,18.984660024815019
2050,0.0
2053,0.0
2054,0.0
2055,0.0
2056,15.0
2057,15.0
2063,21.29152268953413
2285,12.20000000000001
2286,12.20000000000001
2,1, 1,21, 0,11, 0.00,60.00,WinterDesignDay
7,-6.300000000000007
769,18.987257815177917
2050,0.0
2053,0.0
2054,0.0
2055,0.0
2056,15.0
2057,15.0
2063,21.792453015027346
2285,12.20000000000001
2286,12.20000000000001
2,1, 1,21, 0,12, 0.00,60.00,WinterDesignDay
7,-6.300000000000007
769,18.990005406326483
2050,0.0
2053,0.0
2054,0.0
2055,0.0
2056,15.0
2057,15.0
2063,22.797656258897164
2285,12.20000000000001
2286,12.20000000000001
2,1, 1,21, 0,13, 0.00,60.00,WinterDesignDay
7,-6.300000000000007
769,18.980973836555127
2050,0.0
2053,0.0
2054,0.0
2055,0.0
2056,15.0
2057,15.0
2063,22.29629164424044
2285,12.20000000000001
2286,12.20000000000001
2,1, 1,21, 0,14, 0.00,60.00,WinterDesignDay
7,-6.300000000000007
769,18.99059968019539
2050,0.0
2053,0.0
2054,0.0
2055,0.0
2056,15.0
2057,15.0
2063,21.289449240992064
2285,12.20000000000001
2286,12.20000000000001
2,1, 1,21, 0,15, 0.00,60.00,WinterDesignDay
7,-6.300000000000007
769,18.981770626512444
2050,0.0
2053,0.0
2054,0.0
2055,0.0
2056,15.0
2057,15.0
2063,22.29997350099649
2285,12.20000000000001
2286,12.20000000000001
2,1, 1,21, 0,16, 0.00,60.00,WinterDesignDay
7,-6.300000000000007
769,18.98455076598206
2050,0.0
2053,0.0
2054,0.0
2055,0.0
2056,15.0
2057,15.0
2063,22.806129951968577
2285,12.20000000000001
2286,12.20000000000001
2,1, 1,21, 0,17, 0.00,60.00,WinterDesignDay
7,-6.300000000000007
769,18.987787454281368
2050,0.0
2053,0.0
2054,0.0
2055,0.0
2056,15.0
2057,15.0
2063,21.54598944450631
2285,12.20000000000001
2286,12.20000000000001
2,1, 1,21, 0,18, 0.00,60.00,WinterDesignDay
7,-6.300000000000007
769,18.979191851936326
2050,0.0
2053,0.0
2054,0.0
2055,0.0
2056,15.0
2057,15.0
2063,21.546615800281644
2285,12.20000000000001
2286,12.20000000000001
2,1, 1,21, 0,19, 0.00,60.00,WinterDesignDay
7,-6.300000000000007
769,18.924116417359735
2050,0.0
2053,0.0
2054,0.0
2055,0.0
2056,15.0
2057,15.0
2063,20.0385398963262
2285,12.20000000000001
2286,12.20000000000001
2,1, 1,21, 0,20, 0.00,60.00,WinterDesignDay
7,-6.300000000000007
769,18.975293079582707
2050,0.0
2053,0.0
2054,0.0
2055,0.0
2056,15.0
2057,15.0
2063,22.03936328636946
2285,12.20000000000001
2286,12.20000000000001
2,1, 1,21, 0,21, 0.00,60.00,WinterDesignDay
7,-6.300000000000007
769,18.970954349489536
2050,0.0
2053,0.0
2054,0.0
2055,0.0
2056,15.0
2057,15.0
2063,21.521013327220783
2285,12.20000000000001
2286,12.20000000000001
2,1, 1,21, 0,22, 0.00,60.00,WinterDesignDay
7,-6.300000000000007
769,18.969706028468829
2050,0.0
2053,0.0
2054,0.0
2055,0.0
2056,15.0
2057,15.0
2063,20.520297764647038
2285,12.20000000000001
2286,12.20000000000001
2,1, 1,21, 0,23, 0.00,60.00,WinterDesignDay
7,-6.300000000000007
769,18.972342011966707
2050,0.0
2053,0.0
2054,0.0
2055,0.0
2056,15.0
2057,15.0
2063,22.04941644351463
2285,12.20000000000001
2286,12.20000000000001
2,1, 1,21, 0,24, 0.00,60.00,WinterDesignDay
7,-6.300000000000007
769,18.97620794003091
2050,0.0
2053,0.0
2054,0.0
2055,0.0
2056,15.0
2057,15.0
2063,21.791848983297294
2285,12.20000000000001
2286,12.20000000000001
1,ATLANTA-HARTSFIELD.JACKSON.INTL.AP_GA_USA ANN CLG .4% CONDNS DB=>MWB,  33.63, -84.43,  -5.00, 308.00
2,1, 7,21, 0, 1, 0.00,60.00,SummerDesignDay
7,26.32025
769,20.43239842797293
2050,0.0
2053,0.0
2054,0.0
2055,0.0
2056,0.0
2057,0.0
2063,30.01450788808914
2285,6.749301801801795
2286,6.749301801801795
2,1, 7,21, 0, 2, 0.00,60.00,SummerDesignDay
7,25.84683333333334
769,20.36472294281516
2050,0.0
2053,0.0
2054,0.0
2055,0.0
2056,0.0
2057,0.0
2063,30.01450788808914
2285,6.749301801801795
2286,6.749301801801795
2,1, 7,21, 0, 3, 0.00,60.00,SummerDesignDay
7,25.515125
769,20.30348635495154
2050,0.0
2053,0.0
2054,0.0
2055,0.0
2056,0.0
2057,0.0
2063,30.01450788808914
2285,6.749301801801795
2286,6.749301801801795
2,1, 7,21, 0, 4, 0.00,60.00,SummerDesignDay
7,25.230124999999995
769,20.246986622398067
2050,0.0
2053,0.0
2054,0.0
2055,0.0
2056,0.0
2057,0.0
2063,30.01450788808914
2285,6.749301801801795
2286,6.749301801801795
2,1, 7,21, 0, 5, 0.00,60.00,SummerDesignDay
7,24.993416666666673
769,20.193971612157335
2050,0.0
2053,0.0
2054,0.0
2055,0.0
2056,0.0
2057,0.0
2063,30.01450788808914
2285,6.749301801801795
2286,6.749301801801795
2,1, 7,21, 0, 6, 0.00,60.00,SummerDesignDay
7,24.996583333333335
769,20.13923575070464
2050,0.0
2053,0.0
2054,0.0
2055,0.0
2056,0.0
2057,0.0
2063,29.26339910723032
2285,6.749301801801795
2286,6.749301801801795
2,1, 7,21, 0, 7, 0.00,60.00,SummerDesignDay
7,25.42804166666666
769,20.308153025012748
2050,0.0
2053,0.0
2054,0.0
2055,0.0
2056,0.0
2057,0.0
2063,30.01297434227167
2285,6.749301801801795
2286,6.749301801801795
2,1, 7,21, 0, 8, 0.00,60.00,SummerDesignDay
7,26.575958333333334
769,20.37278010123433
2050,0.0
2053,0.0
2054,0.0
2055,0.0
2056,0.0
2057,0.0
2063,30.01297434227167
2285,6.749301801801795
2286,6.749301801801795
2,1, 7,21, 0, 9, 0.00,60.00,SummerDesignDay
7,28.287541666666664
769,20.572867175834995
2050,0.0
2053,0.0
2054,0.0
2055,0.0
2056,0.0
2057,0.0
2063,30.01297434227167
2285,6.749301801801795
2286,6.749301801801795
2,1, 7,21, 0,10, 0.00,60.00,SummerDesignDay
7,29.995958333333328
769,20.868274642635265
2050,0.0
2053,0.0
2054,0.0
2055,0.0
2056,0.0
2057,0.0
2063,30.01297434227167
2285,6.749301801801795
2286,6.749301801801795
2,1, 7,21, 0,11, 0.00,60.00,SummerDesignDay
7,31.514374999999995
769,21.264748152543285
2050,0.0
2053,0.0
2054,0.0
2055,0.0
2056,0.0
2057,0.0
2063,30.01297434227167
2285,6.749301801801795
2286,6.749301801801795
2,1, 7,21, 0,12, 0.00,60.00,SummerDesignDay
7,32.697916666666667
769,21.67104692273295
2050,0.0
2053,0.0
2054,0.0
2055,0.0
2056,0.0
2057,0.0
2063,30.01297434227167
2285,6.749301801801795
2286,6.749301801801795
2,1, 7,21, 0,13, 0.00,60.00,SummerDesignDay
7,33.55133333333333
769,21.984590089985344
2050,0.0
2053,0.0
2054,0.0
2055,0.0
2056,0.0
2057,0.0
2063,30.01297434227167
2285,6.749301801801795
2286,6.749301801801795
2,1, 7,21, 0,14, 0.00,60.00,SummerDesignDay
7,34.16645833333333
769,22.163944830341565
2050,0.0
2053,0.0
2054,0.0
2055,0.0
2056,0.0
2057,0.0
2063,30.01297434227167
2285,6.749301801801795
2286,6.749301801801795
2,1, 7,21, 0,15, 0.00,60.00,SummerDesignDay
7,34.40000000000004
769,22.18844885400721
2050,0.0
2053,0.0
2054,0.0
2055,0.0
2056,0.0
2057,0.0
2063,30.01297434227167
2285,6.749301801801795
2286,6.749301801801795
2,1, 7,21, 0,16, 0.00,60.00,SummerDesignDay
7,34.110250000000018
769,22.068861707887707
2050,0.0
2053,0.0
2054,0.0
2055,0.0
2056,0.0
2057,0.0
2063,30.01297434227167
2285,6.749301801801795
2286,6.749301801801795
2,1, 7,21, 0,17, 0.00,60.00,SummerDesignDay
7,33.44366666666667
769,21.894637090957184
2050,0.0
2053,0.0
2054,0.0
2055,0.0
2056,0.0
2057,0.0
2063,30.01297434227167
2285,6.749301801801795
2286,6.749301801801795
2,1, 7,21, 0,18, 0.00,60.00,SummerDesignDay
7,32.58708333333333
769,21.7324296316685
2050,0.0
2053,0.0
2054,0.0
2055,0.0
2056,0.0
2057,0.0
2063,30.01297434227167
2285,6.749301801801795
2286,6.749301801801795
2,1, 7,21, 0,19, 0.00,60.00,SummerDesignDay
7,31.395624999999997
769,21.52119259072389
2050,0.0
2053,0.0
2054,0.0
2055,0.0
2056,0.0
2057,0.0
2063,30.01297434227167
2285,6.749301801801795
2286,6.749301801801795
2,1, 7,21, 0,20, 0.00,60.00,SummerDesignDay
7,30.16379166666667
769,21.328559029786378
2050,0.0
2053,0.0
2054,0.0
2055,0.0
2056,0.0
2057,0.0
2063,30.01297434227167
2285,6.749301801801795
2286,6.749301801801795
2,1, 7,21, 0,21, 0.00,60.00,SummerDesignDay
7,29.215374999999999
769,21.16707455628414
2050,0.0
2053,0.0
2054,0.0
2055,0.0
2056,0.0
2057,0.0
2063,30.01297434227167
2285,6.749301801801795
2286,6.749301801801795
2,1, 7,21, 0,22, 0.00,60.00,SummerDesignDay
7,28.360375
769,21.0339736605805
2050,0.0
2053,0.0
2054,0.0
2055,0.0
2056,0.0
2057,0.0
2063,30.01297434227167
2285,6.749301801801795
2286,6.749301801801795
2,1, 7,21, 0,23, 0.00,60.00,SummerDesignDay
7,27.60195833333334
769,20.731020648325698
2050,0.0
2053,0.0
2054,0.0
2055,0.0
2056,0.0
2057,0.0
2063,30.01297434227167
2285,6.749301801801795
2286,6.749301801801795
2,1, 7,21, 0,24, 0.00,60.00,SummerDesignDay
7,26.936958333333334
769,20.561002844144264
2050,0.0
2053,0.0
2054,0.0
2055,0.0
2056,0.0
2057,0.0
2063,30.01297434227167
2285,6.749301801801795
2286,6.749301801801795
1,RUNPERIOD 1,  33.63, -84.43,  -5.00, 308.00
2,1, 7, 1, 0, 1, 0.00,60.00,Monday
7,21.118333333333337
769,22.663044105195959
2050,0.0
2053,0.0
2054,0.0
2055,0.0
2056,14.914032881507298
2057,14.914032881507298
2063,30.047768832816005
2285,8.918245255821957
2286,8.918245255821957
2,1, 7, 1, 0, 2, 0.00,60.00,Monday
7,22.098333333333334
769,22.740799057424753
2050,0.0
2053,0.0
2054,0.0
2055,0.0
2056,14.914032881507298
2057,14.914032881507298
2063,30.047768832816005
2285,8.918245255821957
2286,8.918245255821957
2,1, 7, 1, 0, 3, 0.00,60.00,Monday
7,21.949166666666675
769,22.747064022637138
2050,0.0
2053,0.0
2054,0.0
2055,0.0
2056,14.914032881507298
2057,14.914032881507298
2063,30.047768832816005
2285,8.918245255821957
2286,8.918245255821957
2,1, 7, 1, 0, 4, 0.00,60.00,Monday
7,21.79833333333333
769,22.747381896657747
2050,0.0
2053,0.0
2054,0.0
2055,0.0
2056,14.914032881507298
2057,14.914032881507298
2063,30.047768832816005
2285,8.918245255821957
2286,8.918245255821957
2,1, 7, 1, 0, 5, 0.00,60.00,Monday
7,21.700000000000025
769,22.7466484050603
2050,0.0
2053,0.0
2054,0.0
2055,0.0
2056,14.914032881507298
2057,14.914032881507298
2063,30.047768832816005
2285,8.918245255821957
2286,8.918245255821957
2,1, 7, 1, 0, 6, 0.00,60.00,Monday
7,21.954166666666663
769,22.79944409847421
2050,0.0
2053,0.0
2054,0.0
2055,0.0
2056,14.914032881507298
2057,14.914032881507298
2063,25.282642035757598
2285,8.918245255821957
2286,8.918245255821957
2,1, 7, 1, 0, 7, 0.00,60.00,Monday
7,22.200000000000025
769,23.110388092794829
2050,16.809907967605356
2053,0.08991879876954208
2054,0.0016062833754260228
2055,0.0883125153941161
2056,14.925045551361642
2057,14.936957446438687
2063,15.0
2285,8.921116374320445
2286,8.950035298403276
2,1, 7, 1, 0, 8, 0.00,60.00,Monday
7,23.31833333333333
769,20.13853591634442
2050,2.1208824326525459
2053,0.0056199249230963819
2054,0.00014237108185001206
2055,0.00547755384124637
2056,14.909826404042495
2057,14.911329297308452
2063,13.458266061844567
2285,8.918325269584262
2286,8.92089108829306
2,1, 7, 1, 0, 9, 0.00,60.00,Monday
7,25.823333333333335
769,20.186508193366607
2050,0.0
2053,0.0
2054,0.0
2055,0.0
2056,14.909826404042495
2057,14.909826404042495
2063,13.377122170362704
2285,8.91824525663891
2286,8.91824525663891
2,1, 7, 1, 0,10, 0.00,60.00,Monday
7,27.759166666666667
769,20.504146780185093
2050,0.0
2053,0.0
2054,0.0
2055,0.0
2056,14.909826404042495
2057,14.909826404042495
2063,13.377122170362704
2285,8.91824525663891
2286,8.91824525663891
2,1, 7, 1, 0,11, 0.00,60.00,Monday
7,29.164166666666668
769,20.79806611169763
2050,0.0
2053,0.0
2054,0.0
2055,0.0
2056,14.909826404042495
2057,14.909826404042495
2063,13.377122170362704
2285,8.91824525663891
2286,8.91824525663891
2,1, 7, 1, 0,12, 0.00,60.00,Monday
7,30.0
769,21.138229747186676
2050,0.0
2053,0.0
2054,0.0
2055,0.0
2056,14.909826404042495
2057,14.909826404042495
2063,13.377122170362704
2285,8.91824525663891
2286,8.91824525663891
2,1, 7, 1, 0,13, 0.00,60.00,Monday
7,30.86416666666667
769,21.149552362266
2050,0.0
2053,0.0
2054,0.0
2055,0.0
2056,14.909826404042495
2057,14.909826404042495
2063,13.377122170362704
2285,8.91824525663891
2286,8.91824525663891
2,1, 7, 1, 0,14, 0.00,60.00,Monday
7,29.717500000000006
769,20.93785578667119
2050,0.0
2053,0.0
2054,0.0
2055,0.0
2056,14.909826404042495
2057,14.909826404042495
2063,13.377122170362704
2285,8.91824525663891
2286,8.91824525663891
2,1, 7, 1, 0,15, 0.00,60.00,Monday
7,28.613333333333335
769,20.81524974606304
2050,0.0
2053,0.0
2054,0.0
2055,0.0
2056,14.909826404042495
2057,14.909826404042495
2063,13.377122170362704
2285,8.91824525663891
2286,8.91824525663891
2,1, 7, 1, 0,16, 0.00,60.00,Monday
7,28.0275
769,20.851986806784159
2050,0.0
2053,0.0
2054,0.0
2055,0.0
2056,14.909826404042495
2057,14.909826404042495
2063,13.377122170362704
2285,8.91824525663891
2286,8.91824525663891
2,1, 7, 1, 0,17, 0.00,60.00,Monday
7,25.276666666666665
769,20.67187618541995
2050,0.0
2053,0.0
2054,0.0
2055,0.0
2056,14.909826404042495
2057,14.909826404042495
2063,13.377122170362704
2285,8.91824525663891
2286,8.91824525663891
2,1, 7, 1, 0,18, 0.00,60.00,Monday
7,23.594999999999997
769,20.297279090114995
2050,0.0
2053,0.0
2054,0.0
2055,0.0
2056,14.909826404042495
2057,14.909826404042495
2063,13.377122170362704
2285,8.91824525663891
2286,8.91824525663891
2,1, 7, 1, 0,19, 0.00,60.00,Monday
7,23.604999999999995
769,19.969929493914284
2050,0.0
2053,0.0
2054,0.0
2055,0.0
2056,14.909826404042495
2057,14.909826404042495
2063,13.377122170362704
2285,8.91824525663891
2286,8.91824525663891
2,1, 7, 1, 0,20, 0.00,60.00,Monday
7,21.917500000000005
769,19.635936378905688
2050,0.0
2053,0.0
2054,0.0
2055,0.0
2056,14.909826404042495
2057,14.909826404042495
2063,28.012131517018888
2285,8.91824525663891
2286,8.91824525663891
2,1, 7, 1, 0,21, 0.00,60.00,Monday
7,20.304999999999994
769,19.463485917631485
2050,0.0
2053,0.0
2054,0.0
2055,0.0
2056,14.909826404042495
2057,14.909826404042495
2063,27.78461186162249
2285,8.91824525663891
2286,8.91824525663891
2,1, 7, 1, 0,22, 0.00,60.00,Monday
7,20.294999999999996
769,21.890078441723497
2050,0.0
2053,0.0
2054,0.0
2055,0.0
2056,14.909826404042495
2057,14.909826404042495
2063,30.045352780607798
2285,8.91824525663891
2286,8.91824525663891
2,1, 7, 1, 0,23, 0.00,60.00,Monday
7,20.0
769,22.604352434508426
2050,0.0
2053,0.0
2054,0.0
2055,0.0
2056,14.909826404042495
2057,14.909826404042495
2063,30.045352780607798
2285,8.91824525663891
2286,8.91824525663891
2,1, 7, 1, 0,24, 0.00,60.00,Monday
7,20.0
769,22.668347270601
2050,0.0
2053,0.0
2054,0.0
2055,0.0
2056,14.909826404042495
2057,14.909826404042495
2063,30.045352780607798
2285,8.91824525663891
2286,8.91824525663891
2,2, 7, 2, 0, 1, 0.00,60.00,Tuesday
7,20.0
769,22.599885385850557
2050,0.0
2053,0.0
2054,0.0
2055,0.0
2056,14.909826404042495
2057,14.909826404042495
2063,30.045352780607798
2285,8.91824525663891
2286,8.91824525663891
2,2, 7, 2, 0, 2, 0.00,60.00,Tuesday
7,20.0
769,22.569559788397969
2050,0.0
2053,0.0
2054,0.0
2055,0.0
2056,14.909826404042495
2057,14.909826404042495
2063,30.045352780607798
2285,8.91824525663891
2286,8.91824525663891
2,2, 7, 2, 0, 3, 0.00,60.00,Tuesday
7,19.440833333333335
769,22.542258959337354
2050,0.0
2053,0.0
2054,0.0
2055,0.0
2056,14.909826404042495
2057,14.909826404042495
2063,30.045352780607798
2285,8.91824525663891
2286,8.91824525663891
2,2, 7, 2, 0, 4, 0.00,60.00,Tuesday
7,19.154166666666666
769,22.44550578338035
2050,0.0
2053,0.0
2054,0.0
2055,0.0
2056,14.909826404042495
2057,14.909826404042495
2063,30.045352780607798
2285,8.91824525663891
2286,8.91824525663891
2,2, 7, 2, 0, 5, 0.00,60.00,Tuesday
7,19.399999999999996
769,22.50215026497238
2050,0.0
2053,0.0
2054,0.0
2055,0.0
2056,14.909826404042495
2057,14.909826404042495
2063,30.045352780607798
2285,8.91824525663891
2286,8.91824525663891
2,2, 7, 2, 0, 6, 0.00,60.00,Tuesday
7,19.399999999999996
769,22.552653728889209
2050,0.0
2053,0.0
2054,0.0
2055,0.0
2056,14.909826404042495
2057,14.909826404042495
2063,30.045352780607798
2285,8.91824525663891
2286,8.91824525663891
2,2, 7, 2, 0, 7, 0.00,60.00,Tuesday
7,19.705
769,22.853478778577946
2050,0.0
2053,0.0
2054,0.0
2055,0.0
2056,14.909826404042495
2057,14.909826404042495
2063,24.027211668364676
2285,8.91824525663891
2286,8.91824525663891
2,2, 7, 2, 0, 8, 0.00,60.00,Tuesday
7,21.118333333333337
769,20.11332233226163
2050,0.0
2053,0.0
2054,0.0
2055,0.0
2056,14.909826404042495
2057,14.909826404042495
2063,14.453163522077249
2285,8.91824525663891
2286,8.91824525663891
2,2, 7, 2, 0, 9, 0.00,60.00,Tuesday
7,23.62333333333333
769,20.10873075847911
2050,0.0
2053,0.0
2054,0.0
2055,0.0
2056,14.909826404042495
2057,14.909826404042495
2063,14.434307091804051
2285,8.91824525663891
2286,8.91824525663891
2,2, 7, 2, 0,10, 0.00,60.00,Tuesday
7,25.55916666666667
769,20.201556292704589
2050,0.0
2053,0.0
2054,0.0
2055,0.0
2056,14.909826404042495
2057,14.909826404042495
2063,14.434307091804051
2285,8.91824525663891
2286,8.91824525663891
2,2, 7, 2, 0,11, 0.00,60.00,Tuesday
7,26.65916666666666
769,20.38751544481175
2050,0.0
2053,0.0
2054,0.0
2055,0.0
2056,14.909826404042495
2057,14.909826404042495
2063,14.434307091804051
2285,8.91824525663891
2286,8.91824525663891
2,2, 7, 2, 0,12, 0.00,60.00,Tuesday
7,28.06416666666667
769,20.67401917161315
2050,0.0
2053,0.0
2054,0.0
2055,0.0
2056,14.909826404042495
2057,14.909826404042495
2063,14.434307091804051
2285,8.91824525663891
2286,8.91824525663891
2,2, 7, 2, 0,13, 0.00,60.00,Tuesday
7,29.459166666666666
769,20.800968852343197
2050,0.0
2053,0.0
2054,0.0
2055,0.0
2056,14.909826404042495
2057,14.909826404042495
2063,14.434307091804051
2285,8.91824525663891
2286,8.91824525663891
2,2, 7, 2, 0,14, 0.00,60.00,Tuesday
7,29.440833333333328
769,21.046686850292088
2050,0.0
2053,0.0
2054,0.0
2055,0.0
2056,14.909826404042495
2057,14.909826404042495
2063,14.434307091804051
2285,8.91824525663891
2286,8.91824525663891
2,2, 7, 2, 0,15, 0.00,60.00,Tuesday
7,29.76416666666667
769,20.999057765766005
2050,0.0
2053,0.0
2054,0.0
2055,0.0
2056,14.909826404042495
2057,14.909826404042495
2063,14.434307091804051
2285,8.91824525663891
2286,8.91824525663891
2,2, 7, 2, 0,16, 0.00,60.00,Tuesday
7,30.854166666666669
769,20.990043314286689
2050,0.0
2053,0.0
2054,0.0
2055,0.0
2056,14.909826404042495
2057,14.909826404042495
2063,14.434307091804051
2285,8.91824525663891
2286,8.91824525663891
2,2, 7, 2, 0,17, 0.00,60.00,Tuesday
7,30.84583333333334
769,20.858716648848405
2050,0.0
2053,0.0
2054,0.0
2055,0.0
2056,14.909826404042495
2057,14.909826404042495
2063,14.434307091804051
2285,8.91824525663891
2286,8.91824525663891
2,2, 7, 2, 0,18, 0.00,60.00,Tuesday
7,30.59999999999997
769,20.320391072839699
2050,0.0
2053,0.0
2054,0.0
2055,0.0
2056,14.909826404042495
2057,14.909826404042495
2063,14.434307091804051
2285,8.91824525663891
2286,8.91824525663891
2,2, 7, 2, 0,19, 0.00,60.00,Tuesday
7,29.430833333333337
769,19.84889837097507
2050,0.0
2053,0.0
2054,0.0
2055,0.0
2056,14.909826404042495
2057,14.909826404042495
2063,21.313163937010314
2285,8.91824525663891
2286,8.91824525663891
2,2, 7, 2, 0,20, 0.00,60.00,Tuesday
7,26.927500000000003
769,19.493045277199056
2050,0.0
2053,0.0
2054,0.0
2055,0.0
2056,14.909826404042495
2057,14.909826404042495
2063,28.786969192725498
2285,8.91824525663891
2286,8.91824525663891
2,2, 7, 2, 0,21, 0.00,60.00,Tuesday
7,24.430833333333334
769,19.313286006802
2050,0.0
2053,0.0
2054,0.0
2055,0.0
2056,14.909826404042495
2057,14.909826404042495
2063,28.291601533514269
2285,8.91824525663891
2286,8.91824525663891
2,2, 7, 2, 0,22, 0.00,60.00,Tuesday
7,23.045833333333339
769,22.03168654343427
2050,0.0
2053,0.0
2054,0.0
2055,0.0
2056,14.909826404042495
2057,14.909826404042495
2063,22.25927707602929
2285,8.91824525663891
2286,8.91824525663891
2,2, 7, 2, 0,23, 0.00,60.00,Tuesday
7,22.494999999999999
769,22.815303482640116
2050,120.40562064023968
2053,0.2753763212317228
2054,0.007507793655976003
2055,0.2678685275757466
2056,14.89814763217497
2057,14.983468174074457
2063,15.0
2285,8.830363779133906
2286,8.967767454240292
2,2, 7, 2, 0,24, 0.00,60.00,Tuesday
7,21.640833333333334
769,22.87819091913206
2050,203.60391258053498
2053,0.33719549538578277
2054,0.01206642542873932
2055,0.32512906995704357
2056,14.855725181708888
2057,15.0
2063,15.0
2285,9.197750261159757
2286,9.405799616821178
End of Data
 Number of Records Written=        1056
