Program Version,EnergyPlus, Version 9.4.0-998c4b761e, YMD=2021.07.09 14:59
1,5,Environment Title[],Latitude[deg],Longitude[deg],Time Zone[],Elevation[m]
2,8,Day of Simulation[],Month[],Day of Month[],DST Indicator[1=yes 0=no],Hour[],StartMinute[],EndMinute[],DayType
3,5,Cumulative Day of Simulation[],Month[],Day of Month[],DST Indicator[1=yes 0=no],DayType  ! When Daily Report Variables Requested
4,2,Cumulative Days of Simulation[],Month[]  ! When Monthly Report Variables Requested
5,1,Cumulative Days of Simulation[] ! When Run Period Report Variables Requested
6,1,Calendar Year of Simulation[] ! When Annual Report Variables Requested
7,1,Environment,Site Outdoor Air Drybulb Temperature [C] !Hourly
761,1,PERIMETER_TOP_ZN_4_WALL_WEST,CondFD Phase Change Node Temperature 1 [C] !Hourly
762,1,PERIMETER_TOP_ZN_4_WALL_WEST,CondFD Phase Change Node Temperature 2 [C] !Hourly
763,1,PERIMETER_TOP_ZN_4_WALL_WEST,CondFD Phase Change Node Temperature 3 [C] !Hourly
764,1,PERIMETER_TOP_ZN_4_WALL_WEST,CondFD Phase Change Node Temperature 4 [C] !Hourly
765,1,PERIMETER_TOP_ZN_4_WALL_WEST,CondFD Phase Change Node Temperature 5 [C] !Hourly
766,1,PERIMETER_TOP_ZN_4_WALL_WEST,CondFD Phase Change Node Temperature 6 [C] !Hourly
767,1,PERIMETER_TOP_ZN_4_WALL_WEST,CondFD Phase Change Node Temperature 7 [C] !Hourly
768,1,PERIMETER_TOP_ZN_4_WALL_WEST,CondFD Phase Change Node Temperature 8 [C] !Hourly
776,1,PERIMETER_TOP_ZN_2,Zone Mean Air Temperature [C] !Hourly
777,1,PERIMETER_TOP_ZN_1,Zone Mean Air Temperature [C] !Hourly
778,1,PERIMETER_TOP_ZN_4,Zone Mean Air Temperature [C] !Hourly
2058,1,PERI1_TOP_LOTEMP,Zone Radiant HVAC Cooling Rate [W] !Hourly
2061,1,PERI1_TOP_LOTEMP,Zone Radiant HVAC Mass Flow Rate [kg/s] !Hourly
2062,1,PERI1_TOP_LOTEMP,Zone Radiant HVAC Injection Mass Flow Rate [kg/s] !Hourly
2063,1,PERI1_TOP_LOTEMP,Zone Radiant HVAC Recirculation Mass Flow Rate [kg/s] !Hourly
2064,1,PERI1_TOP_LOTEMP,Zone Radiant HVAC Inlet Temperature [C] !Hourly
2065,1,PERI1_TOP_LOTEMP,Zone Radiant HVAC Outlet Temperature [C] !Hourly
2071,1,PERI2_TOP_LOTEMP,Zone Radiant HVAC Outlet Temperature [C] !Hourly
2293,1,PERI1_TOP_LOTEMP_CHW_INLET,System Node Temperature [C] !Hourly
2294,1,PERI1_TOP_LOTEMP_CHW_OUTLET,System Node Temperature [C] !Hourly
End of Data Dictionary
1,ATLANTA-HARTSFIELD.JACKSON.INTL.AP_GA_USA ANN HTG 99.6% CONDNS DB,  33.63, -84.43,  -5.00, 308.00
2,1, 1,21, 0, 1, 0.00,60.00,WinterDesignDay
7,-6.300000000000007
761,-7.003930737748735
762,-6.734500472542498
763,-6.465867273503671
764,-6.3990307339815619
765,-6.332832045320054
766,22.030948861425654
767,22.07168986659151
768,22.036473300471298
776,19.044348935616119
777,19.005972178503514
778,19.271889439807365
2058,0.0
2061,0.0
2062,0.0
2063,0.0
2064,30.01523770971045
2065,30.01523770971045
2071,24.789836731586143
2293,12.20000000000001
2294,12.20000000000001
2,1, 1,21, 0, 2, 0.00,60.00,WinterDesignDay
7,-6.300000000000007
761,-7.016056734936793
762,-6.748508386552477
763,-6.481218757749512
764,-6.414107789337133
765,-6.346564941460357
766,22.92573475972498
767,22.363544767353745
768,22.127845989719899
776,19.035443731696245
777,19.005309105124828
778,19.144159836999454
2058,0.0
2061,0.10654421521885277
2062,0.023970036716667525
2063,0.08257417850218524
2064,30.015501409262105
2065,28.510577868655728
2071,24.56499642571102
2293,12.20000000000001
2294,12.20000000000001
2,1, 1,21, 0, 3, 0.00,60.00,WinterDesignDay
7,-6.300000000000007
761,-6.99997751127356
762,-6.7286320521386389
763,-6.455194502343417
764,-6.3860690450401489
765,-6.316188143613482
766,23.92191407569328
767,23.94884503761364
768,23.862263495122613
776,19.034587639302694
777,19.00634190339787
778,19.547396784322758
2058,0.0
2061,0.0
2062,0.0
2063,0.0
2064,30.00347744689657
2065,30.00347744689657
2071,24.299760330010817
2293,12.20000000000001
2294,12.20000000000001
2,1, 1,21, 0, 4, 0.00,60.00,WinterDesignDay
7,-6.300000000000007
761,-6.995319104677064
762,-6.7245566135330139
763,-6.454732400066288
764,-6.387655072936865
765,-6.321292432200923
766,22.096093409551366
767,22.136382721237856
768,22.09952047282948
776,19.035402776590908
777,19.006320394556178
778,19.283194099188333
2058,0.0
2061,0.0
2062,0.0
2063,0.0
2064,30.00347744689657
2065,30.00347744689657
2071,24.546303506215926
2293,12.20000000000001
2294,12.20000000000001
2,1, 1,21, 0, 5, 0.00,60.00,WinterDesignDay
7,-6.300000000000007
761,-7.009203843674444
762,-6.74070801589192
763,-6.472843025717153
764,-6.405731750951374
765,-6.338374452331617
766,22.815132045966384
767,22.254111780247773
768,22.021582225798168
776,19.031997985493
777,19.00548668697599
778,19.130067924164466
2058,0.0
2061,0.10654421521885277
2062,0.023982055481657249
2063,0.08256215973719554
2064,30.01013245811817
2065,28.504455350284219
2071,24.31667920774413
2293,12.20000000000001
2294,12.20000000000001
2,1, 1,21, 0, 6, 0.00,60.00,WinterDesignDay
7,-6.300000000000007
761,-6.995221372293062
762,-6.723099247316835
763,-6.44886678820866
764,-6.379535973924708
765,-6.309443576614793
766,24.02024475925301
767,24.046289083741376
768,23.956679680479934
776,19.044730011343686
777,19.00638190465498
778,19.554305481631
2058,0.0
2061,0.0
2062,0.0
2063,0.0
2064,30.009158795799235
2065,30.009158795799235
2071,25.288140082782737
2293,12.20000000000001
2294,12.20000000000001
2,1, 1,21, 0, 7, 0.00,60.00,WinterDesignDay
7,-6.300000000000007
761,-6.9905312552455849
762,-6.718991628679535
763,-6.44838071134495
764,-6.381099605997704
765,-6.314521813012418
766,22.199055416885267
767,22.241124791776163
768,22.209214034690139
776,19.066657088952007
777,19.043566007090467
778,19.87073600763573
2058,0.0
2061,0.0
2062,0.0
2063,0.0
2064,30.009158795799235
2065,30.009158795799235
2071,26.1746891487866
2293,12.20000000000001
2294,12.20000000000001
2,1, 1,21, 0, 8, 0.00,60.00,WinterDesignDay
7,-6.300000000000007
761,-7.005652350126436
762,-6.73720911192556
763,-6.471156246914787
764,-6.405554248349174
765,-6.3413391028960979
766,21.015265958228384
767,21.061443037797298
768,21.06013189515717
776,19.036753675111183
777,19.005129201669818
778,19.76939645705809
2058,0.0
2061,0.0
2062,0.0
2063,0.0
2064,30.009158795799235
2065,30.009158795799235
2071,25.116555519345913
2293,12.20000000000001
2294,12.20000000000001
2,1, 1,21, 0, 9, 0.00,60.00,WinterDesignDay
7,-6.300000000000007
761,-7.029732616402027
762,-6.765453375541572
763,-6.5041494711945619
764,-6.439943989674929
765,-6.377383426417099
766,20.215886394287684
767,20.261679776240486
768,20.275948427801429
776,19.04140179101296
777,19.005745211600439
778,19.628814115685338
2058,0.0
2061,0.0
2062,0.0
2063,0.0
2064,30.009158795799235
2065,30.009158795799235
2071,24.822349884702878
2293,12.20000000000001
2294,12.20000000000001
2,1, 1,21, 0,10, 0.00,60.00,WinterDesignDay
7,-6.300000000000007
761,-7.056848337551859
762,-6.7970258666153999
763,-6.540293980098473
764,-6.477263649648026
765,-6.4159081384641019
766,19.655294043190236
767,19.703384512035993
768,19.727111060420517
776,19.03181353364045
777,19.00586063691274
778,19.525341324996157
2058,0.0
2061,0.0
2062,0.0
2063,0.0
2064,30.009158795799235
2065,30.009158795799235
2071,24.86123583767454
2293,12.20000000000001
2294,12.20000000000001
2,1, 1,21, 0,11, 0.00,60.00,WinterDesignDay
7,-6.300000000000007
761,-7.083769276742444
762,-6.828264253530466
763,-6.575701031768734
764,-6.513645284985472
765,-6.453166115072485
766,19.264221305924815
767,19.313660083482586
768,19.34324371291404
776,19.037668056211943
777,19.005366690465974
778,19.452278845254165
2058,0.0
2061,0.0
2062,0.0
2063,0.0
2064,30.009158795799235
2065,30.009158795799235
2071,24.83520482289446
2293,12.20000000000001
2294,12.20000000000001
2,1, 1,21, 0,12, 0.00,60.00,WinterDesignDay
7,-6.300000000000007
761,-7.108745863896657
762,-6.857191443297915
763,-6.608298794155686
764,-6.547044557473521
765,-6.487207220112362
766,18.98987897119356
767,19.04026627385282
768,19.073936384716285
776,19.030601421290539
777,19.004892732729016
778,19.39353955667745
2058,0.0
2061,0.0
2062,0.0
2063,0.0
2064,30.009158795799235
2065,30.009158795799235
2071,24.854976360256907
2293,12.20000000000001
2294,12.20000000000001
2,1, 1,21, 0,13, 0.00,60.00,WinterDesignDay
7,-6.300000000000007
761,-7.130993040787328
762,-6.88292927171378
763,-6.637200303539969
764,-6.576604673446462
765,-6.517246913628609
766,18.79301738309297
767,18.844095910003554
768,18.880673786578634
776,19.041498667916494
777,19.00444169444586
778,19.34332932628025
2058,0.0
2061,0.0
2062,0.0
2063,0.0
2064,30.009158795799235
2065,30.009158795799235
2071,24.81597923869534
2293,12.20000000000001
2294,12.20000000000001
2,1, 1,21, 0,14, 0.00,60.00,WinterDesignDay
7,-6.300000000000007
761,-7.1503263510242329
762,-6.905282976411072
763,-6.662250518263895
764,-6.602199393195325
765,-6.543212003307966
766,18.64582845754513
767,18.69741614503861
768,18.736104927933377
776,19.035663940513684
777,19.00407377748379
778,19.30083376082501
2058,0.0
2061,0.0
2062,0.0
2063,0.0
2064,30.009158795799235
2065,30.009158795799235
2071,25.385457017272075
2293,12.20000000000001
2294,12.20000000000001
2,1, 1,21, 0,15, 0.00,60.00,WinterDesignDay
7,-6.300000000000007
761,-7.166888307304416
762,-6.924427065239576
763,-6.683679859808933
764,-6.624081903140572
765,-6.565389543871857
766,18.53119065188041
767,18.58316480790185
768,18.623441302834157
776,19.0447501406079
777,19.007641623825135
778,19.26438484201101
2058,0.0
2061,0.0
2062,0.0
2063,0.0
2064,30.009158795799235
2065,30.009158795799235
2071,25.5650186664412
2293,12.20000000000001
2294,12.20000000000001
2,1, 1,21, 0,16, 0.00,60.00,WinterDesignDay
7,-6.300000000000007
761,-7.180963551942176
762,-6.940695227746011
763,-6.7018798832058279
764,-6.642661333836015
765,-6.584210047126748
766,18.43873152933004
767,18.491005857126607
768,18.532513341060203
776,19.040398265604418
777,19.00448493528087
778,19.232400638566238
2058,0.0
2061,0.0
2062,0.0
2063,0.0
2064,30.009158795799235
2065,30.009158795799235
2071,25.352211301750946
2293,12.20000000000001
2294,12.20000000000001
2,1, 1,21, 0,17, 0.00,60.00,WinterDesignDay
7,-6.300000000000007
761,-7.192878798815766
762,-6.954467162656987
763,-6.717284417760606
764,-6.658385296206104
765,-6.6001350551631019
766,18.362008851447749
767,18.414521939760286
768,18.45701179709697
776,19.037422564440147
777,19.005590527860436
778,19.203950864008495
2058,0.0
2061,0.0
2062,0.0
2063,0.0
2064,30.009158795799235
2065,30.009158795799235
2071,24.851255080851
2293,12.20000000000001
2294,12.20000000000001
2,1, 1,21, 0,18, 0.00,60.00,WinterDesignDay
7,-6.300000000000007
761,-7.202953675248808
762,-6.9661130883416659
763,-6.730311834053789
764,-6.671683126084558
765,-6.613603342869737
766,18.296878603668799
767,18.34958595256921
768,18.392880190220283
776,19.039473265489617
777,19.00594768874054
778,19.178412874057547
2058,0.0
2061,0.0
2062,0.0
2063,0.0
2064,30.009158795799235
2065,30.009158795799235
2071,24.830859247456269
2293,12.20000000000001
2294,12.20000000000001
2,1, 1,21, 0,19, 0.00,60.00,WinterDesignDay
7,-6.300000000000007
761,-7.166286965880734
762,-6.918103474391411
763,-6.658001693749232
764,-6.587427874441336
765,-6.509189395132536
766,29.04687885532795
767,27.689305893208148
768,27.069822770140026
776,19.019152528169099
777,18.985517728738654
778,19.8611754936174
2058,0.0
2061,0.23084579964084768
2062,0.05730365875143764
2063,0.17354214088941004
2064,30.489157724905078
2065,26.89188430863738
2071,24.136003758239256
2293,12.20000000000001
2294,12.20000000000001
2,1, 1,21, 0,20, 0.00,60.00,WinterDesignDay
7,-6.300000000000007
761,-7.065188747047929
762,-6.801944003300731
763,-6.530976527315336
764,-6.460324785456058
765,-6.386139083535347
766,26.29119305734587
767,26.301787306051009
768,26.152907579662914
776,19.032856778833194
777,19.000609713174197
778,20.088097686077164
2058,0.0
2061,0.0
2062,0.0
2063,0.0
2064,30.192854139337393
2065,30.192854139337393
2071,24.595536053655008
2293,12.20000000000001
2294,12.20000000000001
2,1, 1,21, 0,21, 0.00,60.00,WinterDesignDay
7,-6.300000000000007
761,-7.020955737109261
762,-6.752878713568517
763,-6.4824131210022088
764,-6.413909688718552
765,-6.34448398463646
766,23.73595840247625
767,23.765796028131559
768,23.688545414848197
776,19.033865121077054
777,19.00450248096724
778,19.64648645101207
2058,0.0
2061,0.0
2062,0.0
2063,0.0
2064,30.192854139337393
2065,30.192854139337393
2071,24.55668619108828
2293,12.20000000000001
2294,12.20000000000001
2,1, 1,21, 0,22, 0.00,60.00,WinterDesignDay
7,-6.300000000000007
761,-7.013408584655452
762,-6.745426013941563
763,-6.478039559391507
764,-6.41143369381214
765,-6.3453568819645149
766,21.989938340991963
767,22.03129296046056
768,21.998041971855984
776,19.030308125153647
777,19.003921348872554
778,19.296379839326904
2058,0.0
2061,0.0
2062,0.0
2063,0.0
2064,30.192854139337393
2065,30.192854139337393
2071,24.327573104889507
2293,12.20000000000001
2294,12.20000000000001
2,1, 1,21, 0,23, 0.00,60.00,WinterDesignDay
7,-6.300000000000007
761,-7.024090136730681
762,-6.757823442911955
763,-6.491773151588081
764,-6.424959108914482
765,-6.357697548730357
766,22.79595424343421
767,22.232011946925544
768,21.999618353506344
776,19.04308428857461
777,19.00351646071891
778,19.13518885647594
2058,0.0
2061,0.10654421521885277
2062,0.023973134563803418
2063,0.08257108065504938
2064,30.134784552910749
2065,28.629666779695648
2071,25.29996661799669
2293,12.20000000000001
2294,12.20000000000001
2,1, 1,21, 0,24, 0.00,60.00,WinterDesignDay
7,-6.300000000000007
761,-7.00765035965623
762,-6.737496589504167
763,-6.465134076094988
764,-6.39623031165113
765,-6.326507743608834
766,23.857404110666228
767,23.884728240076816
768,23.799662506182714
776,19.036297612569226
777,19.004813888565516
778,19.530934013771675
2058,0.0
2061,0.0
2062,0.0
2063,0.0
2064,30.01724635650537
2065,30.01724635650537
2071,25.084719066743149
2293,12.20000000000001
2294,12.20000000000001
1,ATLANTA-HARTSFIELD.JACKSON.INTL.AP_GA_USA ANN CLG .4% CONDNS DB=>MWB,  33.63, -84.43,  -5.00, 308.00
2,1, 7,21, 0, 1, 0.00,60.00,SummerDesignDay
7,26.32025
761,28.768472215491497
762,29.56954974063384
763,30.193290931559856
764,30.300652687040466
765,30.304293608088608
766,12.934608026325054
767,13.231227207910074
768,13.556509002540363
776,19.065538462011224
777,19.035643453263324
778,22.9539322893957
2058,3710.3164331139857
2061,0.2889431725221059
2062,0.11009437571974949
2063,0.17884879680235639
2064,11.969861676093215
2065,12.787366171488966
2071,28.043423633553727
2293,6.829886764578929
2294,7.652679248231402
2,1, 7,21, 0, 2, 0.00,60.00,SummerDesignDay
7,25.84683333333334
761,27.315605294856593
762,27.938026545136706
763,28.41945432646908
764,28.500319465921704
765,28.498533000564476
766,12.998711912357273
767,13.28411884137481
768,13.612471513224273
776,19.05569812589408
777,19.03544190123341
778,22.952729524169674
2058,3015.182662215468
2061,0.23476632767421103
2062,0.09166281798278246
2063,0.1431035096914286
2064,11.968363304676038
2065,12.632706916129403
2071,28.28457598590402
2293,7.089256694933569
2294,7.757896796155106
2,1, 7,21, 0, 3, 0.00,60.00,SummerDesignDay
7,25.515125
761,26.163401057993345
762,26.64275629641426
763,27.0099492940794
764,27.069537486413997
765,27.06330712213381
766,12.957137152493408
767,13.338406224944926
768,13.691634581132617
776,19.061203295143053
777,19.03501178290712
778,22.954840704620758
2058,4630.710979586287
2061,0.36117896565263249
2062,0.14383589108625467
2063,0.21734307456637773
2064,11.975587073073174
2065,12.995886081112113
2071,28.03177586253214
2293,7.264438035569039
2294,8.291347037907232
2,1, 7,21, 0, 4, 0.00,60.00,SummerDesignDay
7,25.230124999999995
761,25.23089140483357
762,25.60348347057124
763,25.885060859036196
764,25.928942267689448
765,25.920084587071128
766,13.221875775683122
767,13.594161519218412
768,13.934918891911649
776,19.057367282819567
777,19.03488634815866
778,22.96323606758981
2058,4634.5897878069849
2061,0.36117896565263249
2062,0.14719112169424665
2063,0.21398784395838572
2064,11.967738088255514
2065,12.988890978187893
2071,28.037254954352805
2293,7.40057034649219
2294,8.428333225868334
2,1, 7,21, 0, 5, 0.00,60.00,SummerDesignDay
7,24.993416666666673
761,24.467649167476926
762,24.756752085255337
763,24.972214715847874
764,25.003877535462939
765,24.9927981638344
766,13.358385657194552
767,13.591781901252848
768,13.894316122437097
776,19.064286274737243
777,19.03626453692842
778,22.93612160305303
2058,2322.2696447788914
2061,0.18058948282631619
2062,0.07481148212856798
2063,0.10577800069774819
2064,11.98123031239582
2065,12.492901897976483
2071,28.517076523914438
2293,7.5256109533007449
2294,8.040587527382093
2,1, 7,21, 0, 6, 0.00,60.00,SummerDesignDay
7,24.996583333333335
761,23.92202133811942
762,24.11043218158681
763,24.251698663908358
764,24.269716908856034
765,24.25538577277459
766,13.23390036183501
767,13.601949804550286
768,13.944171914841509
776,19.06653711288482
777,19.042899015861097
778,22.96092806060204
2058,4397.881890546077
2061,0.3431200173700008
2062,0.1419390160639083
2063,0.20118100130609246
2064,11.966718669430686
2065,12.93571797784341
2071,28.55935459741265
2293,7.554922324379296
2294,8.53020112898516
2,1, 7,21, 0, 7, 0.00,60.00,SummerDesignDay
7,25.42804166666666
761,24.21934951536
762,24.05565155771199
763,23.934328828968206
764,23.900637502856399
765,23.866663555140059
766,11.339456838206547
767,11.865012393674279
768,12.295546898716669
776,19.23947059987504
777,19.04130471604514
778,22.9877918026755
2058,6751.954451993014
2061,0.48759160363105399
2062,0.21277658388560737
2063,0.2748150197454463
2064,11.858166526968363
2065,13.345737028147532
2071,30.07183130631045
2293,7.382023860767617
2294,8.87851722845861
2,1, 7,21, 0, 8, 0.00,60.00,SummerDesignDay
7,26.575958333333334
761,25.573173802909208
762,24.95792762754546
763,24.470238738895949
764,24.363034244129385
765,24.302583780669744
766,10.746552130404809
767,11.217614545568676
768,11.650823233878877
776,19.604570752690849
777,19.034400546647246
778,22.98377775100074
2058,5641.760828646342
2061,0.43341475878315907
2062,0.16630489519311179
2063,0.267109863590047
2064,11.93526010068973
2065,13.178310090897167
2071,30.07183130631045
2293,6.884055061305511
2294,8.135036938488144
2,1, 7,21, 0, 9, 0.00,60.00,SummerDesignDay
7,28.287541666666664
761,27.557819087485897
762,26.59172092165824
763,25.810865363449709
764,25.643141587611284
765,25.55818514899188
766,9.7071385399432
767,10.216863858548415
768,10.688864571094558
776,19.980213287569879
777,19.009161128308219
778,22.984925187771674
2058,6111.864846634905
2061,0.46953265534842239
2062,0.17691950524924625
2063,0.2926131500991759
2064,11.942948496057366
2065,13.289576506191095
2071,30.07183130631045
2293,6.700000145849162
2294,8.055221033582522
2,1, 7,21, 0,10, 0.00,60.00,SummerDesignDay
7,29.995958333333328
761,29.799741863485435
762,28.640960147650298
763,27.686901420649155
764,27.481487107383975
765,27.378713696203666
766,8.786935246012276
767,9.318355879327637
768,9.821265517264996
776,20.17987144947021
777,19.05353977871837
778,22.9878426350362
2058,6362.559064580014
2061,0.48759160363105399
2062,0.18417303864070914
2063,0.3034185649903446
2064,11.940027280395233
2065,13.341887652997514
2071,30.07183130631045
2293,6.699999999999993
2294,8.11078372597152
2,1, 7,21, 0,11, 0.00,60.00,SummerDesignDay
7,31.514374999999995
761,31.937261034528708
762,30.73918947394881
763,29.740210497684168
764,29.52278766883147
765,29.410881779994634
766,8.114407718095752
767,8.66393916592811
768,9.189895511880812
776,20.12331146329327
777,19.220473207287463
778,22.99305069974413
2058,6607.712289495267
2061,0.5056505519136857
2062,0.1912673551139374
2063,0.3143831967997478
2064,11.935903461654816
2065,13.391776518747323
2071,30.07183130631045
2293,6.699999999999993
2294,8.165126893142949
2,1, 7,21, 0,12, 0.00,60.00,SummerDesignDay
7,32.697916666666667
761,33.7933774008882
762,32.66775866747451
763,31.714676511599057
764,31.503476296658869
765,31.388999030563537
766,7.639364782966287
767,8.22215344989088
768,8.770253352514264
776,19.81069688023191
777,19.416117997668186
778,23.001808565500754
2058,7097.8723853134629
2061,0.5417684484789489
2062,0.2054517686847035
2063,0.33631667979424509
2064,11.918045739944189
2065,13.481911844989867
2071,30.07183130631045
2293,6.699999999999993
2294,8.273780906649915
2,1, 7,21, 0,13, 0.00,60.00,SummerDesignDay
7,33.55133333333333
761,35.36334812192741
762,34.31206932810807
763,33.43335125632302
764,33.23590033732872
765,33.122453778119389
766,7.380332700493098
767,7.9491803597488
768,8.500491382779379
776,19.39076476060312
777,19.547981931492065
778,23.002320878270479
2058,6899.675798448388
2061,0.5237095001963172
2062,0.19970682915120245
2063,0.32400267104511457
2064,11.9161432129412
2065,13.436333053287445
2071,30.07183130631045
2293,6.699999999999993
2294,8.22977410054859
2,1, 7,21, 0,14, 0.00,60.00,SummerDesignDay
7,34.16645833333333
761,39.657293629929508
762,37.54415996462675
763,35.895918497859728
764,35.54825985368872
765,35.37718421890093
766,4.819799788350314
767,5.672997736739633
768,6.377761706309517
776,19.237820057486198
777,19.598462116965096
778,23.043534727635647
2058,10776.719585265635
2061,0.8126526727184227
2062,0.3119107341826949
2063,0.5007419385357279
2064,11.875061552290309
2065,14.249456643859423
2071,30.07183130631045
2293,6.699999999999993
2294,9.089267131543709
2,1, 7,21, 0,15, 0.00,60.00,SummerDesignDay
7,34.40000000000004
761,46.169153897462859
762,43.10825587153752
763,40.62937519806997
764,40.10579233211254
765,39.858854486609718
766,0.3115488086356334
767,1.43836510400024
768,2.345603468381799
776,19.18226199910881
777,19.545742280667978
778,23.066310101610069
2058,14383.837317668545
2061,1.0835368969578965
2062,0.41630822597301239
2063,0.6672286709848848
2064,11.830867104491574
2065,15.0
2071,30.07183130631045
2293,6.699999999999993
2294,9.888962263562187
2,1, 7,21, 0,16, 0.00,60.00,SummerDesignDay
7,34.110250000000018
761,52.18689922459318
762,48.99024360979432
763,46.329041871318768
764,45.75716869829664
765,45.476894551835687
766,-2.9120181078219855
767,-1.8414786414300624
768,-0.8603685805698939
776,19.09447579275241
777,19.390944731036666
778,23.011888383998416
2058,13287.134867574692
2061,1.0474190003926334
2062,0.38469373520089025
2063,0.6627252651917439
2064,11.972358273524323
2065,14.899981244065574
2071,30.07183130631045
2293,6.699999999999993
2294,9.646792131520242
2,1, 7,21, 0,17, 0.00,60.00,SummerDesignDay
7,33.44366666666667
761,56.291782861990558
762,53.68576009441098
763,51.435261668294447
764,50.93507284645089
765,50.66635579418041
766,-3.9453993714941699
767,-2.9838653990728396
768,-2.000077682658542
776,19.05334060512948
777,19.201624215927777
778,23.032869230687603
2058,11522.319657666554
2061,0.884888465848949
2062,0.33353452669483765
2063,0.5513539391541118
2064,11.91022701034659
2065,14.44894027068819
2071,29.272303067659306
2293,6.699999999999993
2294,9.254907524920885
2,1, 7,21, 0,18, 0.00,60.00,SummerDesignDay
7,32.58708333333333
761,57.14905247315706
762,55.82390253538236
763,54.55325179197976
764,54.24173017112344
765,54.031916697893667
766,-2.3519926473375007
767,-1.5533663512956646
768,-0.6671329334074765
776,19.047619897573317
777,19.054532611494783
778,23.026538463331808
2058,9697.344717531678
2061,0.7404168795878963
2062,0.2806955366072276
2063,0.45972134298066866
2064,11.904627928091719
2065,14.041233320331882
2071,28.510012731980536
2293,6.699999999999993
2294,8.850155624954704
2,1, 7,21, 0,19, 0.00,60.00,SummerDesignDay
7,31.395624999999997
761,53.80110657294166
762,54.35627202098885
763,54.54402728696009
764,54.5204164303602
765,54.4131733330623
766,2.130405244530545
767,2.4946271706877138
768,3.1369017574125075
776,19.045342604002359
777,19.033510350255868
778,22.948599555495489
2058,3499.164806609757
2061,0.2708842242394743
2062,0.10129558937924561
2063,0.16958863486022866
2064,11.958934189263964
2065,12.729910978397499
2071,28.2798194738471
2293,6.699999999999993
2294,7.475934252177479
2,1, 7,21, 0,20, 0.00,60.00,SummerDesignDay
7,30.16379166666667
761,45.59073915464297
762,48.26999553897325
763,50.23669074367893
764,50.57706223885366
765,50.610098923681949
766,8.224406753031535
767,8.518444650272873
768,8.968081387672921
776,19.064632079875694
777,19.034598066267685
778,22.944008285788006
2058,3459.977585689836
2061,0.2708842242394743
2062,0.10016941747341415
2063,0.17071480676606014
2064,11.977539087903784
2065,12.73988923963684
2071,29.018303309832946
2293,6.699999999999993
2294,7.46730766378474
2,1, 7,21, 0,21, 0.00,60.00,SummerDesignDay
7,29.215374999999999
761,39.547735243331988
762,41.98403774155979
763,43.926869906198437
764,44.28093348884567
765,44.335735188865289
766,10.03257599061365
767,10.45809919012104
768,10.90006222820274
776,19.06965249144619
777,19.04090057506047
778,22.981023741453215
2058,5375.630523435717
2061,0.4153558105005274
2062,0.1556143064429082
2063,0.259741504057619
2064,11.947120761077997
2065,13.131540337960385
2071,28.01161613177366
2293,6.699999999999993
2294,7.892021007408593
2,1, 7,21, 0,22, 0.00,60.00,SummerDesignDay
7,28.360375
761,35.77327596688345
762,37.57247388473175
763,38.9987697967082
764,39.25517446213008
765,39.28760385300102
766,10.553382790692604
767,10.922610118498826
768,11.331409138594156
776,19.056064040530097
777,19.034407863593889
778,22.962371523456367
2058,4672.279084116421
2061,0.36117896565263249
2062,0.13525407332194429
2063,0.2259248923306881
2064,11.968676022322553
2065,12.9981256841872
2071,28.02621414098846
2293,6.699999999999993
2294,7.736059604175855
2,1, 7,21, 0,23, 0.00,60.00,SummerDesignDay
7,27.60195833333334
761,32.85601378642723
762,34.207493233072437
763,35.273808968006047
764,35.463306689007037
765,35.482733138360938
766,11.841644167589088
767,12.124558055808697
768,12.480245064208097
776,19.060270175396235
777,19.04649597405399
778,22.872154318443397
2058,3025.83244072508
2061,0.23476632767421103
2062,0.08759475007665868
2063,0.14717157759755238
2064,11.974457477790118
2065,12.641145466825917
2071,28.039896333626499
2293,6.699999999999993
2294,7.370984465482869
2,1, 7,21, 0,24, 0.00,60.00,SummerDesignDay
7,26.936958333333334
761,30.585828127591357
762,31.616952104685099
763,32.4253396310368
764,32.566963327725108
765,32.57714259799766
766,12.534958643078524
767,12.901899927535404
768,13.258839629678862
776,19.05400354242845
777,19.028448927741925
778,22.966530963633458
2058,4643.215776030415
2061,0.36117896565263249
2062,0.1345183565404235
2063,0.22666060911220888
2064,11.958834792199394
2065,12.981886600788928
2071,28.05630047438607
2293,6.702650900900895
2294,7.732312688156518
1,RUNPERIOD 1,  33.63, -84.43,  -5.00, 308.00
2,1, 7, 1, 0, 1, 0.00,60.00,Monday
7,21.118333333333337
761,21.837720906252846
762,22.133090325171965
763,22.379633008341277
764,22.4270371606738
765,22.43879167926331
766,20.167653744764406
767,20.239110511437024
768,20.317696916036917
776,22.943640489599674
777,22.930685273805947
778,22.96784288191377
2058,909.400155248155
2061,0.07223579313052647
2062,0.03807749488850932
2063,0.03415829824201715
2064,11.995477811950824
2065,12.195851980529893
2071,11.976877801475784
2293,9.934295619539178
2294,10.135991807918924
2,1, 7, 1, 0, 2, 0.00,60.00,Monday
7,22.098333333333334
761,21.52787299255976
762,21.719290615864165
763,21.870902671780589
764,21.89914594901961
765,21.905092043808389
766,20.04728261985654
767,20.072635427185469
768,20.14312816286514
776,22.964845330868209
777,22.987159124971364
778,22.90076820978055
2058,0.0
2061,0.0
2062,0.0
2063,0.0
2064,11.994145929787467
2065,11.994145929787467
2071,12.09416018228659
2293,8.99441497033639
2294,8.99441497033639
2,1, 7, 1, 0, 3, 0.00,60.00,Monday
7,21.949166666666675
761,21.12678477030437
762,21.31107958401279
763,21.45769885199597
764,21.485706160428469
765,21.493141106274849
766,20.47899536573595
767,20.495509265343743
768,20.550364963180227
776,22.9050759678865
777,22.950891894884248
778,22.86857094536837
2058,0.0
2061,0.0
2062,0.0
2063,0.0
2064,11.994145929787467
2065,11.994145929787467
2071,11.999393675375777
2293,8.99441497033639
2294,8.99441497033639
2,1, 7, 1, 0, 4, 0.00,60.00,Monday
7,21.79833333333333
761,20.80061238910522
762,20.960131140130846
763,21.090049735836226
764,21.114691587614847
765,21.12224428574711
766,20.718552118619333
767,20.733908507775064
768,20.782449777783645
776,22.86380334344794
777,22.9069809569289
778,22.841301217093056
2058,0.0
2061,0.0
2062,0.0
2063,0.0
2064,11.994145929787467
2065,11.994145929787467
2071,11.999393675375777
2293,8.99441497033639
2294,8.99441497033639
2,1, 7, 1, 0, 5, 0.00,60.00,Monday
7,21.700000000000025
761,20.58493170342826
762,20.70620275140571
763,20.80734675099021
764,20.824271297356927
765,20.83000045601268
766,20.876193274286228
767,20.890819328121226
768,20.935023068229037
776,22.822410425289517
777,22.866668491383547
778,22.80675632664385
2058,0.0
2061,0.0
2062,0.0
2063,0.0
2064,11.994145929787467
2065,11.994145929787467
2071,11.999393675375777
2293,8.99441497033639
2294,8.99441497033639
2,1, 7, 1, 0, 6, 0.00,60.00,Monday
7,21.954166666666663
761,20.610309507814276
762,20.616897539044794
763,20.637694814784508
764,20.642740923695095
765,20.64526570098206
766,20.99336141389605
767,21.009276983802847
768,21.058971011566525
776,22.936083527322095
777,22.887663962909146
778,22.8298220779051
2058,0.0
2061,0.0
2062,0.0
2063,0.0
2064,11.994145929787467
2065,11.994145929787467
2071,12.849565467352628
2293,8.99441497033639
2294,8.99441497033639
2,1, 7, 1, 0, 7, 0.00,60.00,Monday
7,22.200000000000025
761,21.28452957419438
762,20.990080857092477
763,20.73978762700082
764,20.69823691487518
765,20.683994681084358
766,19.702413770914619
767,19.87203854251117
768,19.990965587881158
776,23.724010211956754
777,22.975513700323483
778,22.907673550547665
2058,2313.9170472065177
2061,0.18058948282631619
2062,0.09169189061438508
2063,0.0888975922119311
2064,11.976720193796103
2065,12.486553060725548
2071,15.0
2293,8.939434522569396
2294,9.452572388447257
2,1, 7, 1, 0, 8, 0.00,60.00,Monday
7,23.31833333333333
761,22.17636821402233
762,21.55788930224573
763,21.013007000654345
764,20.91192463403161