Program Version,EnergyPlus, Version 9.4.0-998c4b761e, YMD=2021.07.09 14:59
1,5,Environment Title[],Latitude[deg],Longitude[deg],Time Zone[],Elevation[m]
2,8,Day of Simulation[],Month[],Day of Month[],DST Indicator[1=yes 0=no],Hour[],StartMinute[],EndMinute[],DayType
3,5,Cumulative Day of Simulation[],Month[],Day of Month[],DST Indicator[1=yes 0=no],DayType  ! When Daily Meters Requested
4,2,Cumulative Days of Simulation[],Month[]  ! When Monthly Meters Requested
5,1,Cumulative Days of Simulation[] ! When Run Period Meters Requested
6,1,Calendar Year of Simulation[] ! When Annual Meters Requested
59,1,Electricity:Facility [J] !Hourly
1724,1,ElectricityNet:Facility [J] !Hourly
95,1,InteriorLights:Electricity [J] !Hourly
512,1,InteriorEquipment:Electricity [J] !Hourly
End of Data Dictionary
1,ATLANTA-HARTSFIELD.JACKSON.INTL.AP_GA_USA ANN HTG 99.6% CONDNS DB,  33.63, -84.43,  -5.00, 308.00
2,1, 1,21, 0, 1, 0.00,60.00,WinterDesignDay
59,276079290.10063639
95,0.0
512,0.0
1724,276079290.10063639
2,1, 1,21, 0, 2, 0.00,60.00,WinterDesignDay
59,276187290.10063639
95,0.0
512,0.0
1724,276187290.10063639
2,1, 1,21, 0, 3, 0.00,60.00,WinterDesignDay
59,276181290.10063639
95,0.0
512,0.0
1724,276181290.10063639
2,1, 1,21, 0, 4, 0.00,60.00,WinterDesignDay
59,276073290.10063639
95,0.0
512,0.0
1724,276073290.10063639
2,1, 1,21, 0, 5, 0.00,60.00,WinterDesignDay
59,276193290.10063639
95,0.0
512,0.0
1724,276193290.10063639
2,1, 1,21, 0, 6, 0.00,60.00,WinterDesignDay
59,276073290.10063639
95,0.0
512,0.0
1724,276073290.10063639
2,1, 1,21, 0, 7, 0.00,60.00,WinterDesignDay
59,286229550.10063639
95,0.0
512,0.0
1724,286229550.10063639
2,1, 1,21, 0, 8, 0.00,60.00,WinterDesignDay
59,281762700.10063639
95,0.0
512,0.0
1724,281762700.10063639
2,1, 1,21, 0, 9, 0.00,60.00,WinterDesignDay
59,267528150.10063637
95,0.0
512,0.0
1724,267528150.10063637
2,1, 1,21, 0,10, 0.00,60.00,WinterDesignDay
59,267594150.10063637
95,0.0
512,0.0
1724,267594150.10063637
2,1, 1,21, 0,11, 0.00,60.00,WinterDesignDay
59,267528150.10063637
95,0.0
512,0.0
1724,267528150.1006364
2,1, 1,21, 0,12, 0.00,60.00,WinterDesignDay
59,267576150.10063637
95,0.0
512,0.0
1724,267576150.10063637
2,1, 1,21, 0,13, 0.00,60.00,WinterDesignDay
59,267606150.10063637
95,0.0
512,0.0
1724,267606150.10063637
2,1, 1,21, 0,14, 0.00,60.00,WinterDesignDay
59,267570150.10063637
95,0.0
512,0.0
1724,267570150.1006364
2,1, 1,21, 0,15, 0.00,60.00,WinterDesignDay
59,267474150.10063637
95,0.0
512,0.0
1724,267474150.1006364
2,1, 1,21, 0,16, 0.00,60.00,WinterDesignDay
59,267630150.10063637
95,0.0
512,0.0
1724,267630150.10063637
2,1, 1,21, 0,17, 0.00,60.00,WinterDesignDay
59,267576150.10063637
95,0.0
512,0.0
1724,267576150.10063637
2,1, 1,21, 0,18, 0.00,60.00,WinterDesignDay
59,270059670.10063639
95,0.0
512,0.0
1724,270059670.10063639
2,1, 1,21, 0,19, 0.00,60.00,WinterDesignDay
59,286715550.10063639
95,0.0
512,0.0
1724,286715550.10063639
2,1, 1,21, 0,20, 0.00,60.00,WinterDesignDay
59,278654670.10063639
95,0.0
512,0.0
1724,278654670.10063639
2,1, 1,21, 0,21, 0.00,60.00,WinterDesignDay
59,278696670.10063639
95,0.0
512,0.0
1724,278696670.10063639
2,1, 1,21, 0,22, 0.00,60.00,WinterDesignDay
59,278672670.10063639
95,0.0
512,0.0
1724,278672670.10063639
2,1, 1,21, 0,23, 0.00,60.00,WinterDesignDay
59,278666670.10063639
95,0.0
512,0.0
1724,278666670.10063639
2,1, 1,21, 0,24, 0.00,60.00,WinterDesignDay
59,278648670.10063639
95,0.0
512,0.0
1724,278648670.10063639
1,ATLANTA-HARTSFIELD.JACKSON.INTL.AP_GA_USA ANN CLG .4% CONDNS DB=>MWB,  33.63, -84.43,  -5.00, 308.00
2,1, 7,21, 0, 1, 0.00,60.00,SummerDesignDay
59,720250944.9499433
95,152517470.7542746
512,224813060.55296675
1724,720250944.9499432
2,1, 7,21, 0, 2, 0.00,60.00,SummerDesignDay
59,720117110.5054083
95,152517470.7542746
512,224813060.55296675
1724,720117110.5054083
2,1, 7,21, 0, 3, 0.00,60.00,SummerDesignDay
59,720305390.8759894
95,152517470.7542746
512,224813060.55296675
1724,720305390.8759894
2,1, 7,21, 0, 4, 0.00,60.00,SummerDesignDay
59,720299390.8759897
95,152517470.7542746
512,224813060.55296675
1724,720299390.8759896
2,1, 7,21, 0, 5, 0.00,60.00,SummerDesignDay
59,720031276.0608736
95,152517470.7542746
512,224813060.55296675
1724,720031276.0608736
2,1, 7,21, 0, 6, 0.00,60.00,SummerDesignDay
59,718072375.1528787
95,152399851.51267544
512,224813060.55296675
1724,718072375.1528787
2,1, 7,21, 0, 7, 0.00,60.00,SummerDesignDay
59,688747039.7394714
95,129723979.24717574
512,224813060.55296675
1724,688747039.7394714
2,1, 7,21, 0, 8, 0.00,60.00,SummerDesignDay
59,679571643.5974854
95,120394417.54972403
512,224813060.55296675
1724,679571643.5974854
2,1, 7,21, 0, 9, 0.00,60.00,SummerDesignDay
59,678937634.4154556
95,119991185.40467149
512,224813060.55296675
1724,678937634.4154557
2,1, 7,21, 0,10, 0.00,60.00,SummerDesignDay
59,678702245.896967
95,119991185.40467149
512,224813060.55296675
1724,678702245.8969672
2,1, 7,21, 0,11, 0.00,60.00,SummerDesignDay
59,678724857.3784787
95,119991185.40467149
512,224813060.55296675
1724,678724857.3784787
2,1, 7,21, 0,12, 0.00,60.00,SummerDesignDay
59,678770080.341502
95,119991185.40467149
512,224813060.55296675
1724,678770080.341502
2,1, 7,21, 0,13, 0.00,60.00,SummerDesignDay
59,678765468.8599905
95,119991185.40467149
512,224813060.55296675
1724,678765468.8599905
2,1, 7,21, 0,14, 0.00,60.00,SummerDesignDay
59,679133252.564175
95,119991185.40467149
512,224813060.55296675
1724,679133252.564175
2,1, 7,21, 0,15, 0.00,60.00,SummerDesignDay
59,679532424.7868487
95,119991185.40467149
512,224813060.55296675
1724,679532424.7868487
2,1, 7,21, 0,16, 0.00,60.00,SummerDesignDay
59,679493201.8238255
95,119991185.40467149
512,224813060.55296675
1724,679493201.8238255
2,1, 7,21, 0,17, 0.00,60.00,SummerDesignDay
59,679427698.4902213
95,119991185.40467149
512,224813060.55296675
1724,679427698.4902213
2,1, 7,21, 0,18, 0.00,60.00,SummerDesignDay
59,679419062.4065306
95,120025441.17307365
512,224813060.55296675
1724,679419062.4065306
2,1, 7,21, 0,19, 0.00,60.00,SummerDesignDay
59,681585020.2749926
95,122515297.56083551
512,224813060.55296675
1724,681585020.2749926
2,1, 7,21, 0,20, 0.00,60.00,SummerDesignDay
59,709292176.5246424
95,146697555.81048496
512,224813060.55296675
1724,709292176.5246424
2,1, 7,21, 0,21, 0.00,60.00,SummerDesignDay
59,722852605.3205243
95,152517470.7542746
512,224813060.55296675
1724,722852605.3205243
2,1, 7,21, 0,22, 0.00,60.00,SummerDesignDay
59,722862770.8759896
95,152517470.7542746
512,224813060.55296675
1724,722862770.8759894
2,1, 7,21, 0,23, 0.00,60.00,SummerDesignDay
59,722908490.5054088
95,152517470.7542746
512,224813060.55296675
1724,722908490.5054088
2,1, 7,21, 0,24, 0.00,60.00,SummerDesignDay
59,722838770.8759897
95,152517470.7542746
512,224813060.55296675
1724,722838770.8759896
1,RUNPERIOD 1,  33.63, -84.43,  -5.00, 308.00
2,1, 7, 1, 0, 1, 0.00,60.00,Monday
59,65251817.45476269
95,7625873.53771374
512,44533202.00181081
1724,65251817.45476268
2,1, 7, 1, 0, 2, 0.00,60.00,Monday
59,62905793.53412044
95,7625873.53771374
512,44533202.00181081
1724,62905793.53412043
2,1, 7, 1, 0, 3, 0.00,60.00,Monday
59,60650215.539524439
95,7625873.53771374
512,44533202.00181081
1724,60650215.539524439
2,1, 7, 1, 0, 4, 0.00,60.00,Monday
59,60650215.539524439
95,7625873.53771374
512,44533202.00181081
1724,60650215.539524439
2,1, 7, 1, 0, 5, 0.00,60.00,Monday
59,60650215.539524439
95,7625873.53771374
512,44533202.00181081
1724,60650215.539524439
2,1, 7, 1, 0, 6, 0.00,60.00,Monday
59,92720111.63635047
95,14835019.70208967
512,44533202.00181081
1724,92720111.63635047
2,1, 7, 1, 0, 7, 0.00,60.00,Monday
59,135830627.17315219
95,10806640.641844433
512,55180531.87831209
1724,135830627.17315219
2,1, 7, 1, 0, 8, 0.00,60.00,Monday
59,458598781.532416
95,31270023.132256438
512,95796493.41677362
1724,458598781.5324161
2,1, 7, 1, 0, 9, 0.00,60.00,Monday
59,632054382.738109
95,93124323.85391505
512,204227663.7591696
1724,632054382.738109
2,1, 7, 1, 0,10, 0.00,60.00,Monday
59,601192181.1499057
95,93124323.85391505
512,174055806.61631225
1724,601192181.1499057
2,1, 7, 1, 0,11, 0.00,60.00,Monday
59,594430171.1827959
95,93124323.85391505
512,167093070.3525762
1724,594430171.1827959
2,1, 7, 1, 0,12, 0.00,60.00,Monday
59,601217073.0019981
95,93124323.85391505
512,174055806.61631225
1724,601217073.0019981
2,1, 7, 1, 0,13, 0.00,60.00,Monday
59,604553277.3581562
95,93124323.85391505
512,177667514.30607493
1724,604553277.3581562
2,1, 7, 1, 0,14, 0.00,60.00,Monday
59,608120079.5184046
95,93124323.85391505
512,179858086.83609239
1724,608120079.5184046
2,1, 7, 1, 0,15, 0.00,60.00,Monday
59,594546005.6273306
95,93124323.85391505
512,167093070.3525762
1724,594546005.6273306
2,1, 7, 1, 0,16, 0.00,60.00,Monday
59,594062832.0295652
95,93133991.36789204
512,167093070.3525762
1724,594062832.0295652
2,1, 7, 1, 0,17, 0.00,60.00,Monday
59,605716241.351379
95,94304569.99747429
512,177537174.74818046
1724,605716241.351379
2,1, 7, 1, 0,18, 0.00,60.00,Monday
59,527517126.0307523
95,52897696.51907077
512,140923939.57316477
1724,527517126.0307523
2,1, 7, 1, 0,19, 0.00,60.00,Monday
59,436723177.6417489
95,33000511.074774714
512,69106004.40578471
1724,436723177.6417489
2,1, 7, 1, 0,20, 0.00,60.00,Monday
59,435361215.71097156
95,38899677.792273219
512,59822356.054136309
1724,435361215.7109716
2,1, 7, 1, 0,21, 0.00,60.00,Monday
59,431460590.2589654
95,26303943.895732464
512,59822356.054136309
1724,431460590.2589662
2,1, 7, 1, 0,22, 0.00,60.00,Monday
59,156729252.7271731
95,26303943.895732464
512,55180531.87831209
1724,156729252.7271731
2,1, 7, 1, 0,23, 0.00,60.00,Monday
59,150134644.03463934
95,13151971.947866232
512,55180531.87831209
1724,150134644.03463934
2,1, 7, 1, 0,24, 0.00,60.00,Monday
59,141108823.6161714
95,6575985.973933116
512,55180531.87831209
1724,141108823.6161714
2,2, 7, 2, 0, 1, 0.00,60.00,Tuesday
59,65161371.52871644
95,7625873.53771374
512,44533202.00181081
1724,65161371.52871643
2,2, 7, 2, 0, 2, 0.00,60.00,Tuesday
59,60650215.539524439
95,7625873.53771374
512,44533202.00181081
1724,60650215.539524439
2,2, 7, 2, 0, 3, 0.00,60.00,Tuesday
59,60650215.539524439
95,7625873.53771374
512,44533202.00181081
1724,60650215.539524439
2,2, 7, 2, 0, 4, 0.00,60.00,Tuesday
59,60650215.539524439
95,7625873.53771374
512,44533202.00181081
1724,60650215.539524439
2,2, 7, 2, 0, 5, 0.00,60.00,Tuesday
59,60650215.539524439
95,7625873.53771374
512,44533202.00181081
1724,60650215.539524439
2,2, 7, 2, 0, 6, 0.00,60.00,Tuesday
59,73760426.0556223
95,15251747.07542748
512,44533202.00181081
1724,73760426.0556223
2,2, 7, 2, 0, 7, 0.00,60.00,Tuesday
59,125411011.24209553
95,12100348.64949286
512,55180531.87831209
1724,125411011.2420955
2,2, 7, 2, 0, 8, 0.00,60.00,Tuesday
59,458679342.86353537
95,31140584.46337594
512,95796493.41677362
1724,458679342.86353537
2,2, 7, 2, 0, 9, 0.00,60.00,Tuesday
59,632066382.738109
95,93124323.85391505
512,204227663.7591696
1724,632066382.738109
2,2, 7, 2, 0,10, 0.00,60.00,Tuesday
59,601218958.1868825
95,93124323.85391505
512,174055806.61631225
1724,601218958.1868825
2,2, 7, 2, 0,11, 0.00,60.00,Tuesday
59,594563559.7012844
95,93124323.85391505
512,167093070.3525762
1724,594563559.7012844
2,2, 7, 2, 0,12, 0.00,60.00,Tuesday
59,601213404.112929
95,93124323.85391505
512,174055806.61631225
1724,601213404.112929
2,2, 7, 2, 0,13, 0.00,60.00,Tuesday
59,604987111.8026909
95,93124323.85391505
512,177667514.30607493
1724,604987111.8026916
2,2, 7, 2, 0,14, 0.00,60.00,Tuesday
59,607772028.778055
95,93124323.85391505
512,179858086.83609239
1724,607772028.778055
2,2, 7, 2, 0,15, 0.00,60.00,Tuesday
59,594770731.9239577
95,93124323.85391505
512,167093070.3525762
1724,594770731.9239577
2,2, 7, 2, 0,16, 0.00,60.00,Tuesday
59,595094235.2575616
95,93124323.85391505
512,167093070.3525762
1724,595094235.2575616
2,2, 7, 2, 0,17, 0.00,60.00,Tuesday
59,605680505.2086321
95,93124323.85391505
512,177537174.74818046
1724,605680505.2086321
2,2, 7, 2, 0,18, 0.00,60.00,Tuesday
59,527276821.71905598
95,51749162.5771431
512,140923939.57316477
1724,527276821.71905598
2,2, 7, 2, 0,19, 0.00,60.00,Tuesday
59,435174648.2071538
95,31563153.862853268
512,69106004.40578471
1724,435174648.2071538
2,2, 7, 2, 0,20, 0.00,60.00,Tuesday
59,434147633.9993007
95,37421650.15455603
512,59822356.054136309
1724,434147633.9993008
2,2, 7, 2, 0,21, 0.00,60.00,Tuesday
59,431116309.8883842
95,26303943.895732464
512,59822356.054136309
1724,431116309.88838556
2,2, 7, 2, 0,22, 0.00,60.00,Tuesday
59,159528448.87048874
95,26303943.895732464
512,55180531.87831209
1724,159528448.87048874
2,2, 7, 2, 0,23, 0.00,60.00,Tuesday
59,150849981.81277813
95,13151971.947866232
512,55180531.87831209
1724,150849981.81277813
2,2, 7, 2, 0,24, 0.00,60.00,Tuesday
59,141431435.09768299
95,6575985.973933116
512,55180531.87831209
1724,141431435.09768299
End of Data
 Number of Records Written=         384
