Program Version,EnergyPlus, Version 9.4.0-998c4b761e, YMD=2021.07.09 13:34
1,5,Environment Title[],Latitude[deg],Longitude[deg],Time Zone[],Elevation[m]
2,8,Day of Simulation[],Month[],Day of Month[],DST Indicator[1=yes 0=no],Hour[],StartMinute[],EndMinute[],DayType
3,5,Cumulative Day of Simulation[],Month[],Day of Month[],DST Indicator[1=yes 0=no],DayType  ! When Daily Meters Requested
4,2,Cumulative Days of Simulation[],Month[]  ! When Monthly Meters Requested
5,1,Cumulative Days of Simulation[] ! When Run Period Meters Requested
6,1,Calendar Year of Simulation[] ! When Annual Meters Requested
59,1,Electricity:Facility [J] !Hourly
1716,1,ElectricityNet:Facility [J] !Hourly
95,1,InteriorLights:Electricity [J] !Hourly
512,1,InteriorEquipment:Electricity [J] !Hourly
End of Data Dictionary
1,ATLANTA-HARTSFIELD.JACKSON.INTL.AP_GA_USA ANN HTG 99.6% CONDNS DB,  33.63, -84.43,  -5.00, 308.00
2,1, 1,21, 0, 1, 0.00,60.00,WinterDesignDay
59,106438780.46526069
95,0.0
512,0.0
1716,106438780.46526069
2,1, 1,21, 0, 2, 0.00,60.00,WinterDesignDay
59,106438780.46526069
95,0.0
512,0.0
1716,106438780.46526069
2,1, 1,21, 0, 3, 0.00,60.00,WinterDesignDay
59,106420780.46526069
95,0.0
512,0.0
1716,106420780.46526069
2,1, 1,21, 0, 4, 0.00,60.00,WinterDesignDay
59,106492780.46526069
95,0.0
512,0.0
1716,106492780.46526069
2,1, 1,21, 0, 5, 0.00,60.00,WinterDesignDay
59,106330780.46526069
95,0.0
512,0.0
1716,106330780.46526069
2,1, 1,21, 0, 6, 0.00,60.00,WinterDesignDay
59,106492780.46526069
95,0.0
512,0.0
1716,106492780.46526069
2,1, 1,21, 0, 7, 0.00,60.00,WinterDesignDay
59,116103040.46526069
95,0.0
512,0.0
1716,116103040.46526069
2,1, 1,21, 0, 8, 0.00,60.00,WinterDesignDay
59,111984190.46526069
95,0.0
512,0.0
1716,111984190.46526069
2,1, 1,21, 0, 9, 0.00,60.00,WinterDesignDay
59,97545640.46526069
95,0.0
512,0.0
1716,97545640.46526067
2,1, 1,21, 0,10, 0.00,60.00,WinterDesignDay
59,97893640.46526069
95,0.0
512,0.0
1716,97893640.46526067
2,1, 1,21, 0,11, 0.00,60.00,WinterDesignDay
59,97713640.46526069
95,0.0
512,0.0
1716,97713640.46526069
2,1, 1,21, 0,12, 0.00,60.00,WinterDesignDay
59,97725640.46526069
95,0.0
512,0.0
1716,97725640.46526069
2,1, 1,21, 0,13, 0.00,60.00,WinterDesignDay
59,97725640.46526069
95,0.0
512,0.0
1716,97725640.46526069
2,1, 1,21, 0,14, 0.00,60.00,WinterDesignDay
59,97779640.46526069
95,0.0
512,0.0
1716,97779640.46526069
2,1, 1,21, 0,15, 0.00,60.00,WinterDesignDay
59,97683640.46526069
95,0.0
512,0.0
1716,97683640.46526069
2,1, 1,21, 0,16, 0.00,60.00,WinterDesignDay
59,97851640.46526069
95,0.0
512,0.0
1716,97851640.46526069
2,1, 1,21, 0,17, 0.00,60.00,WinterDesignDay
59,97587640.46526069
95,0.0
512,0.0
1716,97587640.46526069
2,1, 1,21, 0,18, 0.00,60.00,WinterDesignDay
59,100389160.46526069
95,0.0
512,0.0
1716,100389160.46526067
2,1, 1,21, 0,19, 0.00,60.00,WinterDesignDay
59,117093040.46526069
95,0.0
512,0.0
1716,117093040.46526069
2,1, 1,21, 0,20, 0.00,60.00,WinterDesignDay
59,108972160.46526069
95,0.0
512,0.0
1716,108972160.46526069
2,1, 1,21, 0,21, 0.00,60.00,WinterDesignDay
59,108972160.46526069
95,0.0
512,0.0
1716,108972160.46526069
2,1, 1,21, 0,22, 0.00,60.00,WinterDesignDay
59,109014160.46526069
95,0.0
512,0.0
1716,109014160.46526069
2,1, 1,21, 0,23, 0.00,60.00,WinterDesignDay
59,108984160.46526069
95,0.0
512,0.0
1716,108984160.46526069
2,1, 1,21, 0,24, 0.00,60.00,WinterDesignDay
59,109014160.46526069
95,0.0
512,0.0
1716,109014160.46526069
1,ATLANTA-HARTSFIELD.JACKSON.INTL.AP_GA_USA ANN CLG .4% CONDNS DB=>MWB,  33.63, -84.43,  -5.00, 308.00
2,1, 7,21, 0, 1, 0.00,60.00,SummerDesignDay
59,491585812.938334
95,152517470.7542746
512,224813060.55296675
1716,491585812.9383339
2,1, 7,21, 0, 2, 0.00,60.00,SummerDesignDay
59,491585812.938334
95,152517470.7542746
512,224813060.55296675
1716,491585812.9383339
2,1, 7,21, 0, 3, 0.00,60.00,SummerDesignDay
59,491585812.938334
95,152517470.7542746
512,224813060.55296675
1716,491585812.9383339
2,1, 7,21, 0, 4, 0.00,60.00,SummerDesignDay
59,491585812.938334
95,152517470.7542746
512,224813060.55296675
1716,491585812.9383339
2,1, 7,21, 0, 5, 0.00,60.00,SummerDesignDay
59,492294134.0907931
95,152517470.7542746
512,224813060.55296675
1716,492294134.090793
2,1, 7,21, 0, 6, 0.00,60.00,SummerDesignDay
59,490525943.9508333
95,152399851.51267544
512,224813060.55296675
1716,490525943.95083329
2,1, 7,21, 0, 7, 0.00,60.00,SummerDesignDay
59,460301181.4312357
95,129723979.24717574
512,224813060.55296675
1716,460301181.4312354
2,1, 7,21, 0, 8, 0.00,60.00,SummerDesignDay
59,450971619.7337837
95,120394417.54972403
512,224813060.55296675
1716,450971619.7337834
2,1, 7,21, 0, 9, 0.00,60.00,SummerDesignDay
59,450568387.5887311
95,119991185.40467149
512,224813060.55296675
1716,450568387.5887311
2,1, 7,21, 0,10, 0.00,60.00,SummerDesignDay
59,450568387.5887311
95,119991185.40467149
512,224813060.55296675
1716,450568387.5887311
2,1, 7,21, 0,11, 0.00,60.00,SummerDesignDay
59,450568387.5887311
95,119991185.40467149
512,224813060.55296675
1716,450568387.5887311
2,1, 7,21, 0,12, 0.00,60.00,SummerDesignDay
59,450568387.5887311
95,119991185.40467149
512,224813060.55296675
1716,450568387.5887311
2,1, 7,21, 0,13, 0.00,60.00,SummerDesignDay
59,450568387.5887311
95,119991185.40467149
512,224813060.55296675
1716,450568387.5887311
2,1, 7,21, 0,14, 0.00,60.00,SummerDesignDay
59,450694387.5887311
95,119991185.40467149
512,224813060.55296675
1716,450694387.5887311
2,1, 7,21, 0,15, 0.00,60.00,SummerDesignDay
59,450850387.5887311
95,119991185.40467149
512,224813060.55296675
1716,450850387.5887311
2,1, 7,21, 0,16, 0.00,60.00,SummerDesignDay
59,450928387.5887311
95,119991185.40467149
512,224813060.55296675
1716,450928387.5887311
2,1, 7,21, 0,17, 0.00,60.00,SummerDesignDay
59,450940387.5887311
95,119991185.40467149
512,224813060.55296675
1716,450940387.5887311
2,1, 7,21, 0,18, 0.00,60.00,SummerDesignDay
59,450950643.35713347
95,120025441.17307365
512,224813060.55296675
1716,450950643.35713347
2,1, 7,21, 0,19, 0.00,60.00,SummerDesignDay
59,453164499.7448958
95,122515297.56083551
512,224813060.55296675
1716,453164499.7448958
2,1, 7,21, 0,20, 0.00,60.00,SummerDesignDay
59,480769655.9945444
95,146697555.81048496
512,224813060.55296675
1716,480769655.9945444
2,1, 7,21, 0,21, 0.00,60.00,SummerDesignDay
59,494131192.938334
95,152517470.7542746
512,224813060.55296675
1716,494131192.938334
2,1, 7,21, 0,22, 0.00,60.00,SummerDesignDay
59,494131192.938334
95,152517470.7542746
512,224813060.55296675
1716,494131192.938334
2,1, 7,21, 0,23, 0.00,60.00,SummerDesignDay
59,494131192.938334
95,152517470.7542746
512,224813060.55296675
1716,494131192.938334
2,1, 7,21, 0,24, 0.00,60.00,SummerDesignDay
59,494131192.938334
95,152517470.7542746
512,224813060.55296675
1716,494131192.938334
1,RUNPERIOD 1,  33.63, -84.43,  -5.00, 308.00
2,1, 7, 1, 0, 1, 0.00,60.00,Monday
59,86491139.75453909
95,7625873.53771374
512,44533202.00181081
1716,86491139.75453909
2,1, 7, 1, 0, 2, 0.00,60.00,Monday
59,86587139.75453909
95,7625873.53771374
512,44533202.00181081
1716,86587139.75453909
2,1, 7, 1, 0, 3, 0.00,60.00,Monday
59,86611139.75453909
95,7625873.53771374
512,44533202.00181081
1716,86611139.75453909
2,1, 7, 1, 0, 4, 0.00,60.00,Monday
59,86683139.75453909
95,7625873.53771374
512,44533202.00181081
1716,86683139.75453909
2,1, 7, 1, 0, 5, 0.00,60.00,Monday
59,86629139.75453909
95,7625873.53771374
512,44533202.00181081
1716,86629139.75453909
2,1, 7, 1, 0, 6, 0.00,60.00,Monday
59,91128310.91891496
95,14835019.70208967
512,44533202.00181081
1716,91128310.91891496
2,1, 7, 1, 0, 7, 0.00,60.00,Monday
59,95498808.33276385
95,10806640.641844433
512,55180531.87831209
1716,95498808.33276382
2,1, 7, 1, 0, 8, 0.00,60.00,Monday
59,234420469.95989049
95,31270023.132256438
512,95796493.41677362
1716,234420469.95989049
2,1, 7, 1, 0, 9, 0.00,60.00,Monday
59,403116129.24417707
95,93124323.85391505
512,204227663.7591696
1716,403116129.24417707
2,1, 7, 1, 0,10, 0.00,60.00,Monday
59,372944272.1013201
95,93124323.85391505
512,174055806.61631225
1716,372944272.1013201
2,1, 7, 1, 0,11, 0.00,60.00,Monday
59,365981535.83758369
95,93124323.85391505
512,167093070.3525762
1716,365981535.83758369
2,1, 7, 1, 0,12, 0.00,60.00,Monday
59,372944272.1013201
95,93124323.85391505
512,174055806.61631225
1716,372944272.1013201
2,1, 7, 1, 0,13, 0.00,60.00,Monday
59,376897979.7910822
95,93124323.85391505
512,177667514.30607493
1716,376897979.7910822
2,1, 7, 1, 0,14, 0.00,60.00,Monday
59,378788552.3211005
95,93124323.85391505
512,179858086.83609239
1716,378788552.3211004
2,1, 7, 1, 0,15, 0.00,60.00,Monday
59,365981535.83758369
95,93124323.85391505
512,167093070.3525762
1716,365981535.83758369
2,1, 7, 1, 0,16, 0.00,60.00,Monday
59,365991203.3515607
95,93133991.36789204
512,167093070.3525762
1716,365991203.3515607
2,1, 7, 1, 0,17, 0.00,60.00,Monday
59,377605886.37674686
95,94304569.99747429
512,177537174.74818046
1716,377605886.37674686
2,1, 7, 1, 0,18, 0.00,60.00,Monday
59,299585777.72332838
95,52897696.51907077
512,140923939.57316477
1716,299585777.72332838
2,1, 7, 1, 0,19, 0.00,60.00,Monday
59,211176155.82312808
95,33000511.074774714
512,69106004.40578471
1716,211176155.82312799
2,1, 7, 1, 0,20, 0.00,60.00,Monday
59,211599562.49389673
95,38899677.792273219
512,59822356.054136309
1716,211599562.49389673
2,1, 7, 1, 0,21, 0.00,60.00,Monday
59,208393423.74981488
95,26303943.895732464
512,59822356.054136309
1716,208393423.74981488
2,1, 7, 1, 0,22, 0.00,60.00,Monday
59,95940052.33604649
95,26303943.895732464
512,55180531.87831209
1716,95940052.33604649
2,1, 7, 1, 0,23, 0.00,60.00,Monday
59,105461948.04119288
95,13151971.947866232
512,55180531.87831209
1716,105461948.04119288
2,1, 7, 1, 0,24, 0.00,60.00,Monday
59,98885962.06725963
95,6575985.973933116
512,55180531.87831209
1716,98885962.06725963
2,2, 7, 2, 0, 1, 0.00,60.00,Tuesday
59,83809847.33303763
95,7625873.53771374
512,44533202.00181081
1716,83809847.33303763
2,2, 7, 2, 0, 2, 0.00,60.00,Tuesday
59,79293026.63053517
95,7625873.53771374
512,44533202.00181081
1716,79293026.63053517
2,2, 7, 2, 0, 3, 0.00,60.00,Tuesday
59,76803734.2090337
95,7625873.53771374
512,44533202.00181081
1716,76803734.2090337
2,2, 7, 2, 0, 4, 0.00,60.00,Tuesday
59,71318267.29578054
95,7625873.53771374
512,44533202.00181081
1716,71318267.29578054
2,2, 7, 2, 0, 5, 0.00,60.00,Tuesday
59,74677323.85778249
95,7625873.53771374
512,44533202.00181081
1716,74677323.85778249
2,2, 7, 2, 0, 6, 0.00,60.00,Tuesday
59,82679161.02774842
95,15251747.07542748
512,44533202.00181081
1716,82679161.02774842
2,2, 7, 2, 0, 7, 0.00,60.00,Tuesday
59,94381804.74281954
95,12100348.64949286
512,55180531.87831209
1716,94381804.74281954
2,2, 7, 2, 0, 8, 0.00,60.00,Tuesday
59,234437968.8669804
95,31140584.46337594
512,95796493.41677362
1716,234437968.8669804
2,2, 7, 2, 0, 9, 0.00,60.00,Tuesday
59,403116129.24417707
95,93124323.85391505
512,204227663.7591696
1716,403116129.24417707
2,2, 7, 2, 0,10, 0.00,60.00,Tuesday
59,372944272.1013201
95,93124323.85391505
512,174055806.61631225
1716,372944272.1013201
2,2, 7, 2, 0,11, 0.00,60.00,Tuesday
59,365981535.83758369
95,93124323.85391505
512,167093070.3525762
1716,365981535.83758369
2,2, 7, 2, 0,12, 0.00,60.00,Tuesday
59,372944272.1013201
95,93124323.85391505
512,174055806.61631225
1716,372944272.1013201
2,2, 7, 2, 0,13, 0.00,60.00,Tuesday
59,376879979.7910822
95,93124323.85391505
512,177667514.30607493
1716,376879979.7910822
2,2, 7, 2, 0,14, 0.00,60.00,Tuesday
59,378776552.3211005
95,93124323.85391505
512,179858086.83609239
1716,378776552.3211005
2,2, 7, 2, 0,15, 0.00,60.00,Tuesday
59,365981535.83758369
95,93124323.85391505
512,167093070.3525762
1716,365981535.83758369
2,2, 7, 2, 0,16, 0.00,60.00,Tuesday
59,365981535.83758369
95,93124323.85391505
512,167093070.3525762
1716,365981535.83758369
2,2, 7, 2, 0,17, 0.00,60.00,Tuesday
59,376425640.2331886
95,93124323.85391505
512,177537174.74818046
1716,376425640.2331886
2,2, 7, 2, 0,18, 0.00,60.00,Tuesday
59,298767243.78140088
95,51749162.5771431
512,140923939.57316477
1716,298767243.78140088
2,2, 7, 2, 0,19, 0.00,60.00,Tuesday
59,212117869.11940364
95,31563153.862853268
512,69106004.40578471
1716,212117869.11940364
2,2, 7, 2, 0,20, 0.00,60.00,Tuesday
59,209425213.70372034
95,37421650.15455603
512,59822356.054136309
1716,209425213.70372034
2,2, 7, 2, 0,21, 0.00,60.00,Tuesday
59,207667102.59735579
95,26303943.895732464
512,59822356.054136309
1716,207667102.59735579
2,2, 7, 2, 0,22, 0.00,60.00,Tuesday
59,106881222.02205217
95,26303943.895732464
512,55180531.87831209
1716,106881222.02205217
2,2, 7, 2, 0,23, 0.00,60.00,Tuesday
59,107797252.30882076
95,13151971.947866232
512,55180531.87831209
1716,107797252.30882076
2,2, 7, 2, 0,24, 0.00,60.00,Tuesday
59,101278130.55823265
95,6575985.973933116
512,55180531.87831209
1716,101278130.55823265
End of Data
 Number of Records Written=         384
