Program Version,EnergyPlus, Version 9.5.0-de239b2e5f, YMD=2021.07.22 02:07
1,5,Environment Title[],Latitude[deg],Longitude[deg],Time Zone[],Elevation[m]
2,8,Day of Simulation[],Month[],Day of Month[],DST Indicator[1=yes 0=no],Hour[],StartMinute[],EndMinute[],DayType
3,5,Cumulative Day of Simulation[],Month[],Day of Month[],DST Indicator[1=yes 0=no],DayType  ! When Daily Report Variables Requested
4,2,Cumulative Days of Simulation[],Month[]  ! When Monthly Report Variables Requested
5,1,Cumulative Days of Simulation[] ! When Run Period Report Variables Requested
6,1,Calendar Year of Simulation[] ! When Annual Report Variables Requested
7,1,Environment,Site Outdoor Air Drybulb Temperature [C] !Hourly
652,1,PERIMETER_BOT_ZN_1,Zone Mean Air Temperature [C] !Hourly
1717,1,PERI1_TOP_LOTEMP,Zone Radiant HVAC Cooling Rate [W] !Hourly
1720,1,PERI1_TOP_LOTEMP,Zone Radiant HVAC Mass Flow Rate [kg/s] !Hourly
1721,1,PERI1_TOP_LOTEMP,Zone Radiant HVAC Injection Mass Flow Rate [kg/s] !Hourly
1722,1,PERI1_TOP_LOTEMP,Zone Radiant HVAC Recirculation Mass Flow Rate [kg/s] !Hourly
1723,1,PERI1_TOP_LOTEMP,Zone Radiant HVAC Inlet Temperature [C] !Hourly
1724,1,PERI1_TOP_LOTEMP,Zone Radiant HVAC Outlet Temperature [C] !Hourly
1730,1,PERI2_TOP_LOTEMP,Zone Radiant HVAC Outlet Temperature [C] !Hourly
1952,1,PERI1_TOP_LOTEMP_CHW_INLET,System Node Temperature [C] !Hourly
1953,1,PERI1_TOP_LOTEMP_CHW_OUTLET,System Node Temperature [C] !Hourly
End of Data Dictionary
1,ATLANTA-HARTSFIELD.JACKSON.INTL.AP_GA_USA ANN HTG 99.6% CONDNS DB,  33.63, -84.43,  -5.00, 308.00
2,1, 1,21, 0, 1, 0.00,60.00,WinterDesignDay
7,-6.300000000000007
652,16.010609115123445
1717,0.0
1720,0.15232947013333335
1721,0.02488194441315656
1722,0.12744752572017679
1723,30.079382597406047
1724,27.201924699105157
1730,40.8478521185969
1952,12.92878363827891
1953,12.92878363827891
2,1, 1,21, 0, 2, 0.00,60.00,WinterDesignDay
7,-6.300000000000007
652,16.01273822320849
1717,0.0
1720,0.1433689130666667
1721,0.023379979485560276
1722,0.1199889335811064
1723,30.069259792964968
1724,27.36613550872097
1730,40.847169716203179
1952,12.92878363827891
1953,12.92878363827891
2,1, 1,21, 0, 3, 0.00,60.00,WinterDesignDay
7,-6.300000000000007
652,16.009754289396605
1717,0.0
1720,0.1612900272
1721,0.026354789493765786
1722,0.13493523770623426
1723,30.0841053941916
1724,27.036498633292003
1730,40.84655177627316
1952,12.92878363827891
1953,12.92878363827891
2,1, 1,21, 0, 4, 0.00,60.00,WinterDesignDay
7,-6.300000000000007
652,16.012345712258907
1717,0.0
1720,0.1433689130666667
1721,0.023405166418221724
1722,0.11996374664844496
1723,30.060048497096419
1724,27.35309865009221
1730,40.84599047015952
1952,12.92878363827891
1953,12.92878363827891
2,1, 1,21, 0, 5, 0.00,60.00,WinterDesignDay
7,-6.300000000000007
652,16.010653707673993
1717,0.0
1720,0.15232947013333335
1721,0.024911031019644395
1722,0.12741843911368895
1723,30.089785192705006
1724,27.209362874453445
1730,40.84547994137283
1952,12.92878363827891
1953,12.92878363827891
2,1, 1,21, 0, 6, 0.00,60.00,WinterDesignDay
7,-6.300000000000007
652,16.010425968216894
1717,0.0
1720,0.1612900272
1721,0.026346745363186716
1722,0.13494328183681329
1723,30.07455333460962
1724,27.02775983294358
1730,40.84501466202039
1952,12.92878363827891
1953,12.92878363827891
2,1, 1,21, 0, 7, 0.00,60.00,WinterDesignDay
7,-6.300000000000007
652,16.073699118345567
1717,0.0
1720,0.026881671200000003
1721,0.004545817273392907
1722,0.022335853926607097
1723,30.083041682519825
1724,29.553151373821028
1730,40.85634532840337
1952,12.92878363827891
1953,12.92878363827891
2,1, 1,21, 0, 8, 0.00,60.00,WinterDesignDay
7,-6.300000000000007
652,16.028001835787124
1717,0.0
1720,0.053763342400000007
1721,0.00907130454787875
1722,0.04469203785212125
1723,30.01710263065029
1724,28.960210681353474
1730,40.86430005759646
1952,12.92878363827891
1953,12.92878363827891
2,1, 1,21, 0, 9, 0.00,60.00,WinterDesignDay
7,-6.300000000000007
652,16.02311659245585
1717,0.0
1720,0.07168445653333335
1721,0.012115558706423028
1722,0.05956889782691031
1723,30.041617859308077
1724,28.630172480891735
1730,40.86644867532896
1952,12.92878363827891
1953,12.92878363827891
2,1, 1,21, 0,10, 0.00,60.00,WinterDesignDay
7,-6.300000000000007
652,16.022960354199978
1717,0.0
1720,0.07168445653333335
1721,0.012104302486088608
1722,0.05958015404724473
1723,30.03801987972736
1724,28.628024646772464
1730,40.8676910695514
1952,12.92878363827891
1953,12.92878363827891
2,1, 1,21, 0,11, 0.00,60.00,WinterDesignDay
7,-6.300000000000007
652,16.0212300000227
1717,0.0
1720,0.07168445653333335
1721,0.012121674549151689
1722,0.059562781984181658
1723,30.054968290325996
1724,28.643013536804486
1730,40.868609028008517
1952,12.92878363827891
1953,12.92878363827891
2,1, 1,21, 0,12, 0.00,60.00,WinterDesignDay
7,-6.300000000000007
652,16.02219149250126
1717,0.0
1720,0.07168445653333335
1721,0.012086843099457595
1722,0.059597613433875738
1723,30.032485090810437
1724,28.62473692692684
1730,40.86937513499415
1952,12.92878363827891
1953,12.92878363827891
2,1, 1,21, 0,13, 0.00,60.00,WinterDesignDay
7,-6.300000000000007
652,16.02128655571646
1717,0.0
1720,0.08064501360000001
1721,0.013629165055218887
1722,0.06701584854478113
1723,30.044316784846197
1724,28.45667289380263
1730,40.870045507975579
1952,12.92878363827891
1953,12.92878363827891
2,1, 1,21, 0,14, 0.00,60.00,WinterDesignDay
7,-6.300000000000007
652,16.021937386698668
1717,0.0
1720,0.08064501360000001
1721,0.01359104003476255
1722,0.06705397356523747
1723,30.0397769170413
1724,28.4572676926426
1730,40.870641910055159
1952,12.92878363827891
1953,12.92878363827891
2,1, 1,21, 0,15, 0.00,60.00,WinterDesignDay
7,-6.300000000000007
652,16.02298533338868
1717,0.0
1720,0.07168445653333335
1721,0.012083284600161183
1722,0.05960117193317215
1723,30.035304999430914
1724,28.628125350336285
1730,40.87117544716125
1952,12.92878363827891
1953,12.92878363827891
2,1, 1,21, 0,16, 0.00,60.00,WinterDesignDay
7,-6.300000000000007
652,16.023022653318649
1717,0.0
1720,0.07168445653333335
1721,0.012080116858983737
1722,0.0596043396743496
1723,30.040541984301837
1724,28.633806429085689
1730,40.87165383278444
1952,12.92878363827891
1953,12.92878363827891
2,1, 1,21, 0,17, 0.00,60.00,WinterDesignDay
7,-6.300000000000007
652,16.02215085413572
1717,0.0
1720,0.07168445653333335
1721,0.012086321605640783
1722,0.05959813492769255
1723,30.036031851258586
1724,28.628579409157795
1730,40.87208308582655
1952,12.92878363827891
1953,12.92878363827891
2,1, 1,21, 0,18, 0.00,60.00,WinterDesignDay
7,-6.300000000000007
652,16.021691027472888
1717,0.0
1720,0.07168445653333335
1721,0.012080658611716196
1722,0.059603797921617147
1723,30.03866232770033
1724,28.631906658484448
1730,40.87246847481149
1952,12.92878363827891
1953,12.92878363827891
2,1, 1,21, 0,19, 0.00,60.00,WinterDesignDay
7,-6.300000000000007
652,16.000237940764867
1717,0.0
1720,0.2329744837333332
1721,0.038551936305908408
1722,0.19442254742742494
1723,30.153393698943096
1724,25.697487463732139
1730,40.86101671793986
1952,12.92878363827891
1953,12.92878363827891
2,1, 1,21, 0,20, 0.00,60.00,WinterDesignDay
7,-6.300000000000007
652,16.013380470832599
1717,0.0
1720,0.15232947013333335
1721,0.02474247565502461
1722,0.1275869944783087
1723,30.052387517954704
1724,27.19260944519484
1730,40.85297522097049
1952,12.92878363827891
1953,12.92878363827891
2,1, 1,21, 0,21, 0.00,60.00,WinterDesignDay
7,-6.300000000000007
652,16.01318963163228
1717,0.0
1720,0.1612900272
1721,0.02624468555306136
1722,0.13504534164693864
1723,30.05878713983577
1724,27.02577150271062
1730,40.850752014106259
1952,12.92878363827891
1953,12.92878363827891
2,1, 1,21, 0,22, 0.00,60.00,WinterDesignDay
7,-6.300000000000007
652,16.012820823247055
1717,0.0
1720,0.1433689130666667
1721,0.023357015894772728
1722,0.12001189717189395
1723,30.059429394532605
1724,27.359595970791366
1730,40.84943837555101
1952,12.92878363827891
1953,12.92878363827891
2,1, 1,21, 0,23, 0.00,60.00,WinterDesignDay
7,-6.300000000000007
652,16.010536285360084
1717,0.0
1720,0.1612900272
1721,0.026338032830031018
1722,0.134951994369969
1723,30.08456547797822
1724,27.0393746029954
1730,40.84844992584317
1952,12.92878363827891
1953,12.92878363827891
2,1, 1,21, 0,24, 0.00,60.00,WinterDesignDay
7,-6.300000000000007
652,16.010203303875249
1717,0.0
1720,0.1612900272
1721,0.026316486781921338
1722,0.13497354041807867
1723,30.076089548252374
1724,27.033276474608888
1730,40.84761443154918
1952,12.92878363827891
1953,12.92878363827891
1,ATLANTA-HARTSFIELD.JACKSON.INTL.AP_GA_USA ANN CLG .4% CONDNS DB=>MWB,  33.63, -84.43,  -5.00, 308.00
2,1, 7,21, 0, 1, 0.00,60.00,SummerDesignDay
7,26.32025
652,20.398511189010756
1717,9177.34452961849
1720,0.5467642243600003
1721,0.3111601831153966
1722,0.2356040412446035
1723,9.998990532917237
1724,14.003956115265093
1730,28.938372316382276
1952,6.8834496140372709
1953,10.935546075580218
2,1, 7,21, 0, 2, 0.00,60.00,SummerDesignDay
7,25.84683333333334
652,20.27182992424639
1717,8998.715738667881
1720,0.5467642243600003
1721,0.314345604067233
1722,0.232418620292767
1723,10.105275947519269
1724,14.032411180176322
1730,28.985522487157718
1952,7.119586882741276
1953,11.093854465602853
2,1, 7,21, 0, 3, 0.00,60.00,SummerDesignDay
7,25.515125
652,20.171588314298505
1717,8847.5612415892
1720,0.5467642243600003
1721,0.3158600258976439
1722,0.23090419846235619
1723,10.189071421254239
1724,14.050333906076299
1730,29.051342324353546
1952,7.284739011941208
1953,11.193134977854136
2,1, 7,21, 0, 4, 0.00,60.00,SummerDesignDay
7,25.230124999999995
652,20.08603517440484
1717,8711.80555165163
1720,0.5467642243600003
1721,0.31712361016811987
1722,0.2296406141918802
1723,10.26051555935174
1724,14.062609195670577
1730,29.11828294667907
1952,7.425962837837838
1953,11.275190919497735
2,1, 7,21, 0, 5, 0.00,60.00,SummerDesignDay
7,24.993416666666673
652,20.01112015698529
1717,8589.41192183179
1720,0.5467642243600003
1721,0.31793921776675579
1722,0.22882500659324435
1723,10.323108865317586
1724,14.071853458430076
1730,29.184530755519256
1952,7.544027675604871
1953,11.33990755888917
2,1, 7,21, 0, 6, 0.00,60.00,SummerDesignDay
7,24.996583333333335
652,19.956175526771124
1717,8498.809331537701
1720,0.5467642243600003
1721,0.3143819624174197
1722,0.2323822619425802
1723,10.369501140285204
1724,14.078752658072182
1730,29.311001393256189
1952,7.545573915632699
1953,11.301961349779827
2,1, 7,21, 0, 7, 0.00,60.00,SummerDesignDay
7,25.42804166666666
652,20.339234503048325
1717,9091.51497274972
1720,0.5467642243600003
1721,0.3281426959241193
1722,0.21862152843588066
1723,10.057482986330358
1724,14.025060063574149
1730,30.12970280118399
1952,7.335703317964299
1953,11.35041209128612
2,1, 7,21, 0, 8, 0.00,60.00,SummerDesignDay
7,26.575958333333334
652,20.59731484496972
1717,9431.78396438934
1720,0.5467642243600003
1721,0.3199543301148464
1722,0.22680989424515347
1723,9.840043289633768
1724,13.955828616207935
1730,30.180979946952666
1952,6.840959799294429
1953,11.003873537114514
2,1, 7,21, 0, 9, 0.00,60.00,SummerDesignDay
7,28.287541666666664
652,20.970831918444753
1717,10020.56730148332
1720,0.5467642243600003
1721,0.33551700230675599
1722,0.21124722205324407
1723,9.529972186737727
1724,13.90223338663849
1730,30.180979946952666
1952,6.699999999999995
1953,11.119384730425553
2,1, 7,21, 0,10, 0.00,60.00,SummerDesignDay
7,29.995958333333328
652,21.428698756664156
1717,10764.689421640905
1720,0.5467642243600003
1721,0.36292888966399358
1722,0.18383533469600636
1723,9.150273639665894
1724,13.846619117633582
1730,30.180979946952666
1952,6.699999999999993
1953,11.443463033160749
2,1, 7,21, 0,11, 0.00,60.00,SummerDesignDay
7,31.514374999999995
652,22.076962849862949
1717,11854.501128214539
1720,0.5467642243600003
1721,0.40280846694749958
1722,0.1439557574125005
1723,8.612553932391048
1724,13.783422957888672
1730,30.180979946952666
1952,6.699999999999993
1953,11.917978121211242
2,1, 7,21, 0,12, 0.00,60.00,SummerDesignDay
7,32.697916666666667
652,22.787556433572655
1717,13054.691874283248
1720,0.5467642243600003
1721,0.44796385994003876
1722,0.09880036441996128
1723,8.01956410582058
1724,13.71282502922122
1730,30.180979946952666
1952,6.701327052547016
1953,12.445939332363201
2,1, 7,21, 0,13, 0.00,60.00,SummerDesignDay
7,33.55133333333333
652,23.367106291859384
1717,13569.519576793786
1720,0.5467642243600003
1721,0.5338927787792981
1722,0.01287144558070222
1723,7.778568529759762
1724,13.695880714168995
1730,30.180979946952666
1952,7.54281920943367
1953,13.538478162594446
2,1, 7,21, 0,14, 0.00,60.00,SummerDesignDay
7,34.16645833333333
652,23.76515220651448
1717,13496.698738228935
1720,0.5467642243600003
1721,0.5467642243600003
1722,0.0
1723,7.948760416264225
1724,13.834652834681057
1730,30.180979946952666
1952,7.867687534004657
1953,13.834652834681057
2,1, 7,21, 0,15, 0.00,60.00,SummerDesignDay
7,34.40000000000004
652,23.901047048013955
1717,13492.862718822978
1720,0.5467642243600003
1721,0.5467642243600003
1722,0.0
1723,8.090535530701136
1724,13.975033554996778
1730,30.180979946952666
1952,8.009480170587312
1953,13.975033554996778
2,1, 7,21, 0,16, 0.00,60.00,SummerDesignDay
7,34.110250000000018
652,23.731660227610683
1717,13483.8588145985
1720,0.5467642243600003
1721,0.5467642243600003
1722,0.0
1723,8.14416939282659
1724,14.024845944619456
1730,30.180979946952666
1952,8.063146233985119
1953,14.024845944619456
2,1, 7,21, 0,17, 0.00,60.00,SummerDesignDay
7,33.44366666666667
652,23.337563634323275
1717,13474.880681650415
1720,0.5467642243600003
1721,0.5467642243600003
1722,0.0
1723,8.073261874136647
1724,13.949883722857568
1730,30.180979946952666
1952,7.9922662057053339
1953,13.949883722857568
2,1, 7,21, 0,18, 0.00,60.00,SummerDesignDay
7,32.58708333333333
652,22.860318076402437
1717,13268.08926477549
1720,0.5467642243600003
1721,0.5108923814554438
1722,0.0358718429045564
1723,8.00175296995538
1724,13.788049408729967
1730,30.180979946952666
1952,7.479270800059104
1953,13.339741146758234
2,1, 7,21, 0,19, 0.00,60.00,SummerDesignDay
7,31.395624999999997
652,22.36219960046794
1717,12278.957219227495
1720,0.5467642243600003
1721,0.4211791833074425
1722,0.1255850410525577
1723,8.35793862630016
1724,13.71350212161602
1730,30.180979946952666
1952,6.700000003232973
1953,12.102668589562305
2,1, 7,21, 0,20, 0.00,60.00,SummerDesignDay
7,30.16379166666667
652,21.949275404843399
1717,11523.043997173429
1720,0.5467642243600003
1721,0.3945801562153907
1722,0.15218406814460928
1723,8.704084458775407
1724,13.730534002337129
1730,30.180979946952666
1952,6.699999999999993
1953,11.773560078934298
2,1, 7,21, 0,21, 0.00,60.00,SummerDesignDay
7,29.215374999999999
652,21.60840094899975
1717,10963.67294545199
1720,0.5467642243600003
1721,0.3734516295626783
1722,0.17331259479732179
1723,8.988820159677893
1724,13.771722527283315
1730,30.180979946952666
1952,6.699999999999993
1953,11.530017382409577
2,1, 7,21, 0,22, 0.00,60.00,SummerDesignDay
7,28.360375
652,21.34867650610748
1717,10556.092622261796
1720,0.5467642243600003
1721,0.35770240000472966
1722,0.1890618243552705
1723,9.206314063353665
1724,13.811744613259787
1730,30.180979946952666
1952,6.699999999999993
1953,11.35254898684661
2,1, 7,21, 0,23, 0.00,60.00,SummerDesignDay
7,27.60195833333334
652,20.81402507551475
1717,9717.24652953078
1720,0.5467642243600003
1721,0.32619088771681606
1722,0.22057333664318394
1723,9.646909348439467
1724,13.88698767733634
1730,28.783268237164397
1952,6.699999999999993
1953,10.98720369999133
2,1, 7,21, 0,24, 0.00,60.00,SummerDesignDay
7,26.936958333333334
652,20.572373541599807
1717,9410.655414057854
1720,0.5467642243600003
1721,0.31291923350420455
1722,0.2338449908557954
1723,9.853999251738243
1724,13.960585065544937
1730,28.631819180273543
1952,6.7027041521533159
1953,10.856418596904494
1,RUNPERIOD 1,  33.63, -84.43,  -5.00, 308.00
2,1, 7, 1, 0, 1, 0.00,60.00,Sunday
7,21.118333333333337
652,22.124400194487384
1717,0.0
1720,0.0
1721,0.0
1722,0.0
1723,15.517243200000023
1724,15.517243200000023
1730,11.993775717829417
1952,6.699999999999993
1953,6.699999999999993
2,1, 7, 1, 0, 2, 0.00,60.00,Sunday
7,22.098333333333334
652,22.157526741325659
1717,0.0
1720,0.0
1721,0.0
1722,0.0
1723,15.517243200000023
1724,15.517243200000023
1730,11.993775717829417
1952,6.699999999999993
1953,6.699999999999993
2,1, 7, 1, 0, 3, 0.00,60.00,Sunday
7,21.949166666666675
652,21.72832418230256
1717,10473.066061516198
1720,0.5467642243600003
1721,0.2342532452845399
1722,0.3125109790754603
1723,15.200161460000003
1724,19.777308941895698
1730,11.993775717829417
1952,9.014384887066786
1953,13.638732675457371
2,1, 7, 1, 0, 4, 0.00,60.00,Sunday
7,21.79833333333333
652,21.380038751805267
1717,0.0
1720,0.0
1721,0.0
1722,0.0
1723,15.200161460000003
1724,15.200161460000003
1730,11.993775717829417
1952,9.077897766983823
1953,9.077897766983823
2,1, 7, 1, 0, 5, 0.00,60.00,Sunday
7,21.700000000000025
652,21.435665198129109
1717,0.0
1720,0.0
1721,0.0
1722,0.0
1723,15.200161460000003
1724,15.200161460000003
1730,11.993775717829417
1952,9.077897766983823
1953,9.077897766983823
2,1, 7, 1, 0, 6, 0.00,60.00,Sunday
7,21.954166666666663
652,21.22941239372926
1717,8329.185204272833
1720,0.5467642243600003
1721,0.19882445706709774
1722,0.3479397672929023
1723,15.541320639999988
1724,19.18174413445523
1730,13.056164320989583
1952,9.053968455377064
1953,12.74159533500849
2,1, 7, 1, 0, 7, 0.00,60.00,Sunday
7,22.200000000000025
652,21.3263703880528
1717,0.0
1720,0.0
1721,0.0
1722,0.0
1723,15.541320639999988
1724,15.541320639999988
1730,14.19225720626754
1952,8.932132786702539
1953,8.932132786702539
2,1, 7, 1, 0, 8, 0.00,60.00,Sunday
7,23.31833333333333
652,21.520477286707874
1717,7972.949488410097
1720,0.5467642243600003
1721,0.18268735768614828
1722,0.36407686667385177
1723,15.485967360000013
1724,18.970654623872023
1730,14.299455292072404
1952,8.39363259554031
1953,11.925522745250906
2,1, 7, 1, 0, 9, 0.00,60.00,Sunday
7,25.823333333333335
652,21.968966612751637
1717,0.0
1720,0.0
1721,0.0
1722,0.0
1723,15.485967360000013
1724,15.485967360000013
1730,14.9631887362573
1952,7.850213090319994
1953,7.850213090319994
2,1, 7, 1, 0,10, 0.00,60.00,Sunday
7,27.759166666666667
652,22.815365455968018
1717,0.0
1720,0.0
1721,0.0
1722,0.0
1723,15.485967360000013
1724,15.485967360000013
1730,14.451526392462146
1952,7.850213090319994
1953,7.850213090319994
2,1, 7, 1, 0,11, 0.00,60.00,Sunday
7,29.164166666666668
652,23.278390708988078
1717,9790.15223467812
1720,0.5467642243600003
1721,0.1877814056845701
1722,0.3589828186754301
1723,15.026695059999982
1724,19.30524010510864
1730,13.408048946263556
1952,6.719170218171996
1953,11.044914004811436
2,1, 7, 1, 0,12, 0.00,60.00,Sunday
7,30.0
652,23.788862102385754
1717,7974.846902075693
1720,0.5467642243600003
1721,0.15762631174778303
1722,0.389137912612217
1723,15.46835481000002
1724,18.95385961694899
1730,13.505107471520623
1952,6.699999999999993
1953,10.232707533693806
2,1, 7, 1, 0,13, 0.00,60.00,Sunday
7,30.86416666666667
652,24.48923067172543
1717,0.0
1720,0.0
1721,0.0
1722,0.0
1723,15.46835481000002
1724,15.46835481000002
1730,13.297450217744313
1952,6.699999999999993
1953,6.699999999999993
2,1, 7, 1, 0,14, 0.00,60.00,Sunday
7,29.717500000000006
652,24.46030816243631
1717,9200.390281722694
1720,0.5467642243600003
1721,0.1731707415122258
1722,0.3735934828477742
1723,15.517243200000023
1724,19.53842437954104
1730,13.352550448628478
1952,6.699999999999993
1953,10.768384347460258
2,1, 7, 1, 0,15, 0.00,60.00,Sunday
7,28.613333333333335
652,24.436263331730229
1717,0.0
1720,0.0
1721,0.0
1722,0.0
1723,15.517243200000023
1724,15.517243200000023
1730,13.380727628758275
1952,6.699999999999993
1953,6.699999999999993
2,1, 7, 1, 0,16, 0.00,60.00,Sunday
7,28.0275
652,24.441861556698073
1717,0.0
1720,0.0
1721,0.0
1722,0.0
1723,15.517243200000023
1724,15.517243200000023
1730,13.546461025067014
1952,6.699999999999993
1953,6.699999999999993
2,1, 7, 1, 0,17, 0.00,60.00,Sunday
7,25.276666666666665
652,24.06382632008035
1717,0.0
1720,0.0
1721,0.0
1722,0.0
1723,15.517243200000023
1724,15.517243200000023
1730,14.034546504132332
1952,6.699999999999993
1953,6.699999999999993
2,1, 7, 1, 0,18, 0.00,60.00,Sunday
7,23.594999999999997
652,23.66131772600945
1717,0.0
1720,0.0
1721,0.0
1722,0.0
1723,15.517243200000023
1724,15.517243200000023
1730,14.425207659713277
1952,6.699999999999993
1953,6.699999999999993
2,1, 7, 1, 0,19, 0.00,60.00,Sunday
7,23.604999999999995
652,23.327416670077925
1717,0.0
1720,0.0
1721,0.0
1722,0.0
1723,15.517243200000023
1724,15.517243200000023
1730,13.761416702524623
1952,6.699999999999993
1953,6.699999999999993
2,1, 7, 1, 0,20, 0.00,60.00,Sunday
7,21.917500000000005
652,22.978282352742036
1717,0.0
1720,0.0
1721,0.0
1722,0.0
1723,15.517243200000023
1724,15.517243200000023
1730,12.444860054035879
1952,6.699999999999993
1953,6.699999999999993
2,1, 7, 1, 0,21, 0.00,60.00,Sunday
7,20.304999999999994
652,22.538308491117868
1717,0.0
1720,0.0
1721,0.0
1722,0.0
1723,15.517243200000023
1724,15.517243200000023
1730,12.513319467102197
1952,6.699999999999993
1953,6.699999999999993
2,1, 7, 1, 0,22, 0.00,60.00,Sunday
7,20.294999999999996
652,22.374573152865499
1717,0.0
1720,0.0
1721,0.0
1722,0.0
1723,15.517243200000023
1724,15.517243200000023
1730,11.988097145456014
1952,6.699999999999993
1953,6.699999999999993
2,1, 7, 1, 0,23, 0.00,60.00,Sunday
7,20.0
652,22.257809052234554
1717,0.0
1720,0.0
1721,0.0
1722,0.0
1723,15.517243200000023
1724,15.517243200000023
1730,11.988097145456014
1952,6.699999999999993
1953,6.699999999999993
2,1, 7, 1, 0,24, 0.00,60.00,Sunday
7,20.0
652,22.155867099504805
1717,0.0
1720,0.0
1721,0.0
1722,0.0
1723,15.517243200000023
1724,15.517243200000023
1730,11.988097145456014
1952,6.699999999999993
1953,6.699999999999993
2,2, 7, 2, 0, 1, 0.00,60.00,Monday
7,20.0
652,21.63812206414688
1717,13958.045407792155
1720,0.5467642243600003
1721,0.5463417909599873
1722,0.00042243340001291895
1723,13.195981922851491
1724,19.29257818962946
1730,11.988097145456014
1952,13.115272840536017
1953,19.282618358807324
2,2, 7, 2, 0, 2, 0.00,60.00,Monday
7,20.0
652,20.931567245900493
1717,13448.266438308563
1720,0.5467642243600003
1721,0.5467642243600003
1722,0.0
1723,12.250717861303395
1724,18.123291942914343
1730,11.988097145456014
1952,12.178168950160649
1953,18.123291942914343
2,2, 7, 2, 0, 3, 0.00,60.00,Monday
7,19.440833333333335
652,20.515838531105748
1717,13455.090308207711
1720,0.5467642243600003
1721,0.5467642243600003
1722,0.0
1723,11.699823579700018
1724,17.574450490130855
1730,11.988097145456014
1952,11.624269519114819
1953,17.574450490130855
2,2, 7, 2, 0, 4, 0.00,60.00,Monday
7,19.154166666666666
652,20.151287334845429
1717,13451.820553280364
1720,0.5467642243600003
1721,0.5467642243600003
1722,0.0
1723,11.239019906706466
1724,17.11144407590378
1730,11.988097145456014
1952,11.160967020781682
1953,17.11144407590378
2,2, 7, 2, 0, 5, 0.00,60.00,Monday
7,19.399999999999996
652,19.82743277430991
1717,13391.187986090867
1720,0.5467642243600003
1721,0.5435962979718584
1722,0.0031679263881419065
1723,10.748766710259297
1724,16.593901791735484
1730,11.988097145456014
1952,10.638743600496249
1953,16.559195767872134
2,2, 7, 2, 0, 6, 0.00,60.00,Monday
7,19.399999999999996
652,19.472792846928497
1717,11695.579964968461
1720,0.5467642243600003
1721,0.5065851781542687
1722,0.04017904620573142
1723,10.767381600498327
1724,15.872415875935046
1730,11.988097145456014
1952,10.317117318773232
1953,15.46929288169508
2,2, 7, 2, 0, 7, 0.00,60.00,Monday
7,19.705
652,19.232005151302507
1717,9341.032924201469
1720,0.5467642243600003
1721,0.46191873704255917
1722,0.08484548731744092
1723,10.972267432456015
1724,15.049803979336682
1730,13.215198885929472
1952,10.17089788480649
1953,14.295578485463189
2,2, 7, 2, 0, 8, 0.00,60.00,Monday
7,21.118333333333337
652,19.893946204900887
1717,9286.72063012937
1720,0.5467642243600003
1721,0.4478579498190829
1722,0.09890627454091713
1723,10.437773099047473
1724,14.49097493470059
1730,11.398337593051885
1952,9.48373069582031
1953,13.584069369640046
2,2, 7, 2, 0, 9, 0.00,60.00,Monday
7,23.62333333333333
652,20.523205419518836
1717,9692.894698325124
1720,0.5467642243600003
1721,0.39835076439761016
1722,0.14841345996238992
1723,9.90328433885466
1724,14.133098401325407
1730,11.345155434165952
1952,8.247549536458142
1953,12.524492980879215
2,2, 7, 2, 0,10, 0.00,60.00,Monday
7,25.55916666666667
652,21.008800244124705
1717,10180.164878737887
1720,0.5467642243600003
1721,0.36820715085692276
1722,0.1785570735030774
1723,9.498896781171114
1724,13.940749559594194
1730,11.345155434165952
1952,7.274498035090321
1953,11.763473854919253
2,2, 7, 2, 0,11, 0.00,60.00,Monday
7,26.65916666666666
652,21.51022540164743
1717,10854.355695234844
1720,0.5467642243600003
1721,0.37171503312723105
1722,0.1750491912327689
1723,9.082381905991982
1724,13.817739502534128
1730,11.345155434165952
1952,6.783661685662574
1953,11.566135769126174
2,2, 7, 2, 0,12, 0.00,60.00,Monday
7,28.06416666666667
652,22.09374508533746
1717,11751.763435950117
1720,0.5467642243600003
1721,0.40278813638441998
1722,0.14397608797558004
1723,8.59696077153487
1724,13.722992290304527
1730,11.345155434165952
1952,6.699999999999993
1953,11.873140369112626
2,2, 7, 2, 0,13, 0.00,60.00,Monday
7,29.459166666666666
652,24.06828461984531
1717,13521.57389333806
1720,0.5467642243600003
1721,0.5369501889225705
1722,0.009814035437429829
1723,7.701331143567608
1724,13.597577976428699
1730,11.345155434165952
1952,7.499697424626348
1953,13.473392895677604
2,2, 7, 2, 0,14, 0.00,60.00,Monday
7,29.440833333333328
652,23.22909040810126
1717,13388.83672057014
1720,0.5467642243600003
1721,0.520210010879013
1722,0.026554213480987196
1723,7.733990860604427
1724,13.572426041327244
1730,11.345155434165952
1952,7.3388174526646889
1953,13.25421693444398
2,2, 7, 2, 0,15, 0.00,60.00,Monday
7,29.76416666666667
652,23.036370708805369
1717,13125.17390129631
1720,0.5467642243600003
1721,0.4622210178348831
1722,0.08454320652511688
1723,7.802588314771318
1724,13.526179950173884
1730,11.345155434165952
1952,6.700001061165794
1953,12.470689055259701
2,2, 7, 2, 0,16, 0.00,60.00,Monday
7,30.854166666666669
652,22.97575419597627
1717,12943.303263108079
1720,0.5467642243600003
1721,0.45790434648724417
1722,0.08885987787275569
1723,7.8515310174189489
1724,13.495904618519037
1730,11.345155434165952
1952,6.699999999999993
1953,12.391470729236869
2,2, 7, 2, 0,17, 0.00,60.00,Monday
7,30.84583333333334
652,22.772092333823389
1717,12543.620412751301
1720,0.5467642243600003
1721,0.44428183168391796
1722,0.10248239267608207
1723,8.019843961942727
1724,13.49022889949348
1730,11.345155434165952
1952,6.699999999999993
1953,12.217484711951482
2,2, 7, 2, 0,18, 0.00,60.00,Monday
7,30.59999999999997
652,24.06283309914149
1717,13505.957785072791
1720,0.5467642243600003
1721,0.5395528353733794
1722,0.007211388986620945
1723,7.505460960295957
1724,13.394514583164739
1730,11.345155434165952
1952,7.338281423849066
1953,13.30541132636638
2,2, 7, 2, 0,19, 0.00,60.00,Monday
7,29.430833333333337
652,21.6762966080651
1717,10472.844057222288
1720,0.5467642243600003
1721,0.3781522992994815
1722,0.16861192506051854
1723,8.910816537830458
1724,13.479396995302159
1730,30.317348732592426
1952,6.765037565941596
1953,11.384434087632919
2,2, 7, 2, 0,20, 0.00,60.00,Monday
7,26.927500000000003
652,20.195987640460876
1717,8283.03261628221
1720,0.5467642243600003
1721,0.2876698700504566
1722,0.2590943543095435
1723,10.152759432226077
1724,13.767587922098942
1730,32.07422194901327
1952,6.806747806659074
1953,10.468709159408688
2,2, 7, 2, 0,21, 0.00,60.00,Monday
7,24.430833333333334
652,19.491517544293825
1717,7421.341696324673
1720,0.5467642243600003
1721,0.2908769808628164
1722,0.25588724349718369
1723,10.74950283029114
1724,13.988849937746194
1730,31.968951363811308
1952,7.805335827108237
1953,11.091823980700254
2,2, 7, 2, 0,22, 0.00,60.00,Monday
7,23.045833333333339
652,19.087423223532608
1717,6952.316700937756
1720,0.5467642243600003
1721,0.2999076767820105
1722,0.2468565475779896
1723,11.090305102768346
1724,14.125225655808882
1730,21.275442902159229
1952,8.506349810575627
1953,11.588416011231745
2,2, 7, 2, 0,23, 0.00,60.00,Monday
7,22.494999999999999
652,18.880597084858825
1717,6730.7339695718469
1720,0.5467642243600003
1721,0.3010097008850278
1722,0.2457545234749722
1723,11.263403514469684
1724,14.201741492888403
1730,12.577350112582716
1952,8.778611613793512
1953,11.764097577333719
2,2, 7, 2, 0,24, 0.00,60.00,Monday
7,21.640833333333334
652,18.68704410679471
1717,6463.057566545442
1720,0.5467642243600003
1721,0.3108353605039718
1722,0.2359288638560283
1723,11.424740069753217
1724,14.246352764729462
1730,11.999420385263152
1952,9.197750261159757
1953,12.06651312013192
End of Data
 Number of Records Written=        1056
