Program Version,EnergyPlus, Version 9.5.0-de239b2e5f, YMD=2021.07.22 14:23
1,5,Environment Title[],Latitude[deg],Longitude[deg],Time Zone[],Elevation[m]
2,8,Day of Simulation[],Month[],Day of Month[],DST Indicator[1=yes 0=no],Hour[],StartMinute[],EndMinute[],DayType
3,5,Cumulative Day of Simulation[],Month[],Day of Month[],DST Indicator[1=yes 0=no],DayType  ! When Daily Report Variables Requested
4,2,Cumulative Days of Simulation[],Month[]  ! When Monthly Report Variables Requested
5,1,Cumulative Days of Simulation[] ! When Run Period Report Variables Requested
6,1,Calendar Year of Simulation[] ! When Annual Report Variables Requested
7,1,Environment,Site Outdoor Air Drybulb Temperature [C] !Hourly
652,1,PERIMETER_BOT_ZN_1,Zone Mean Air Temperature [C] !Hourly
1717,1,PERI1_TOP_LOTEMP,Zone Radiant HVAC Cooling Rate [W] !Hourly
1720,1,PERI1_TOP_LOTEMP,Zone Radiant HVAC Mass Flow Rate [kg/s] !Hourly
1721,1,PERI1_TOP_LOTEMP,Zone Radiant HVAC Injection Mass Flow Rate [kg/s] !Hourly
1722,1,PERI1_TOP_LOTEMP,Zone Radiant HVAC Recirculation Mass Flow Rate [kg/s] !Hourly
1723,1,PERI1_TOP_LOTEMP,Zone Radiant HVAC Inlet Temperature [C] !Hourly
1724,1,PERI1_TOP_LOTEMP,Zone Radiant HVAC Outlet Temperature [C] !Hourly
1730,1,PERI2_TOP_LOTEMP,Zone Radiant HVAC Outlet Temperature [C] !Hourly
1952,1,PERI1_TOP_LOTEMP_CHW_INLET,System Node Temperature [C] !Hourly
1953,1,PERI1_TOP_LOTEMP_CHW_OUTLET,System Node Temperature [C] !Hourly
End of Data Dictionary
1,ATLANTA-HARTSFIELD.JACKSON.INTL.AP_GA_USA ANN HTG 99.6% CONDNS DB,  33.63, -84.43,  -5.00, 308.00
2,1, 1,21, 0, 1, 0.00,60.00,WinterDesignDay
7,-6.300000000000007
652,16.010609115123445
1717,0.0
1720,0.15232947013333335
1721,0.02488194441315656
1722,0.12744752572017679
1723,30.079382597406047
1724,27.201924699105157
1730,40.8478521185969
1952,12.92878363827891
1953,12.92878363827891
2,1, 1,21, 0, 2, 0.00,60.00,WinterDesignDay
7,-6.300000000000007
652,16.01273822320849
1717,0.0
1720,0.1433689130666667
1721,0.023379979485560276
1722,0.1199889335811064
1723,30.069259792964968
1724,27.36613550872097
1730,40.847169716203179
1952,12.92878363827891
1953,12.92878363827891
2,1, 1,21, 0, 3, 0.00,60.00,WinterDesignDay
7,-6.300000000000007
652,16.009754289396605
1717,0.0
1720,0.1612900272
1721,0.026354789493765786
1722,0.13493523770623426
1723,30.0841053941916
1724,27.036498633292003
1730,40.84655177627316
1952,12.92878363827891
1953,12.92878363827891
2,1, 1,21, 0, 4, 0.00,60.00,WinterDesignDay
7,-6.300000000000007
652,16.012345712258907
1717,0.0
1720,0.1433689130666667
1721,0.023405166418221724
1722,0.11996374664844496
1723,30.060048497096419
1724,27.35309865009221
1730,40.84599047015952
1952,12.92878363827891
1953,12.92878363827891
2,1, 1,21, 0, 5, 0.00,60.00,WinterDesignDay
7,-6.300000000000007
652,16.010653707673993
1717,0.0
1720,0.15232947013333335
1721,0.024911031019644395
1722,0.12741843911368895
1723,30.089785192705006
1724,27.209362874453445
1730,40.84547994137283
1952,12.92878363827891
1953,12.92878363827891
2,1, 1,21, 0, 6, 0.00,60.00,WinterDesignDay
7,-6.300000000000007
652,16.010425968216894
1717,0.0
1720,0.1612900272
1721,0.026346745363186716
1722,0.13494328183681329
1723,30.07455333460962
1724,27.02775983294358
1730,40.84501466202039
1952,12.92878363827891
1953,12.92878363827891
2,1, 1,21, 0, 7, 0.00,60.00,WinterDesignDay
7,-6.300000000000007
652,16.073699118345567
1717,0.0
1720,0.026881671200000003
1721,0.004545817273392907
1722,0.022335853926607097
1723,30.083041682519825
1724,29.553151373821028
1730,40.85634532840337
1952,12.92878363827891
1953,12.92878363827891
2,1, 1,21, 0, 8, 0.00,60.00,WinterDesignDay
7,-6.300000000000007
652,16.028001835787124
1717,0.0
1720,0.053763342400000007
1721,0.00907130454787875
1722,0.04469203785212125
1723,30.01710263065029
1724,28.960210681353474
1730,40.86430005759646
1952,12.92878363827891
1953,12.92878363827891
2,1, 1,21, 0, 9, 0.00,60.00,WinterDesignDay
7,-6.300000000000007
652,16.02311659245585
1717,0.0
1720,0.07168445653333335
1721,0.012115558706423028
1722,0.05956889782691031
1723,30.041617859308077
1724,28.630172480891735
1730,40.86644867532896
1952,12.92878363827891
1953,12.92878363827891
2,1, 1,21, 0,10, 0.00,60.00,WinterDesignDay
7,-6.300000000000007
652,16.022960354199978
1717,0.0
1720,0.07168445653333335
1721,0.012104302486088608
1722,0.05958015404724473
1723,30.03801987972736
1724,28.628024646772464
1730,40.8676910695514
1952,12.92878363827891
1953,12.92878363827891
2,1, 1,21, 0,11, 0.00,60.00,WinterDesignDay
7,-6.300000000000007
652,16.0212300000227
1717,0.0
1720,0.07168445653333335
1721,0.012121674549151689
1722,0.059562781984181658
1723,30.054968290325996
1724,28.643013536804486
1730,40.868609028008517
1952,12.92878363827891
1953,12.92878363827891
2,1, 1,21, 0,12, 0.00,60.00,WinterDesignDay
7,-6.300000000000007
652,16.02219149250126
1717,0.0
1720,0.07168445653333335
1721,0.012086843099457595
1722,0.059597613433875738
1723,30.032485090810437
1724,28.62473692692684
1730,40.86937513499415
1952,12.92878363827891
1953,12.92878363827891
2,1, 1,21, 0,13, 0.00,60.00,WinterDesignDay
7,-6.300000000000007
652,16.02128655571646
1717,0.0
1720,0.08064501360000001
1721,0.013629165055218887
1722,0.06701584854478113
1723,30.044316784846197
1724,28.45667289380263
1730,40.870045507975579
1952,12.92878363827891
1953,12.92878363827891
2,1, 1,21, 0,14, 0.00,60.00,WinterDesignDay
7,-6.300000000000007
652,16.021937386698668
1717,0.0
1720,0.08064501360000001
1721,0.01359104003476255
1722,0.06705397356523747
1723,30.0397769170413
1724,28.4572676926426
1730,40.870641910055159
1952,12.92878363827891
1953,12.92878363827891
2,1, 1,21, 0,15, 0.00,60.00,WinterDesignDay
7,-6.300000000000007
652,16.02298533338868
1717,0.0
1720,0.07168445653333335
1721,0.012083284600161183
1722,0.05960117193317215
1723,30.035304999430914
1724,28.628125350336285
1730,40.87117544716125
1952,12.92878363827891
1953,12.92878363827891
2,1, 1,21, 0,16, 0.00,60.00,WinterDesignDay
7,-6.300000000000007
652,16.023022653318649
1717,0.0
1720,0.07168445653333335
1721,0.012080116858983737
1722,0.0596043396743496
1723,30.040541984301837
1724,28.633806429085689
1730,40.87165383278444
1952,12.92878363827891
1953,12.92878363827891
2,1, 1,21, 0,17, 0.00,60.00,WinterDesignDay
7,-6.300000000000007
652,16.02215085413572
1717,0.0
1720,0.07168445653333335
1721,0.012086321605640783
1722,0.05959813492769255
1723,30.036031851258586
1724,28.628579409157795
1730,40.87208308582655
1952,12.92878363827891
1953,12.92878363827891
2,1, 1,21, 0,18, 0.00,60.00,WinterDesignDay
7,-6.300000000000007
652,16.021691027472888
1717,0.0
1720,0.07168445653333335
1721,0.012080658611716196
1722,0.059603797921617147
1723,30.03866232770033
1724,28.631906658484448
1730,40.87246847481149
1952,12.92878363827891
1953,12.92878363827891
2,1, 1,21, 0,19, 0.00,60.00,WinterDesignDay
7,-6.300000000000007
652,16.000237940764867
1717,0.0
1720,0.2329744837333332
1721,0.038551936305908408
1722,0.19442254742742494
1723,30.153393698943096
1724,25.697487463732139
1730,40.86101671793986
1952,12.92878363827891
1953,12.92878363827891
2,1, 1,21, 0,20, 0.00,60.00,WinterDesignDay
7,-6.300000000000007
652,16.013380470832599
1717,0.0
1720,0.15232947013333335
1721,0.02474247565502461
1722,0.1275869944783087
1723,30.052387517954704
1724,27.19260944519484
1730,40.85297522097049
1952,12.92878363827891
1953,12.92878363827891
2,1, 1,21, 0,21, 0.00,60.00,WinterDesignDay
7,-6.300000000000007
652,16.01318963163228
1717,0.0
1720,0.1612900272
1721,0.02624468555306136
1722,0.13504534164693864
1723,30.05878713983577
1724,27.02577150271062
1730,40.850752014106259
1952,12.92878363827891
1953,12.92878363827891
2,1, 1,21, 0,22, 0.00,60.00,WinterDesignDay
7,-6.300000000000007
652,16.012820823247055
1717,0.0
1720,0.1433689130666667
1721,0.023357015894772728
1722,0.12001189717189395
1723,30.059429394532605
1724,27.359595970791366
1730,40.84943837555101
1952,12.92878363827891
1953,12.92878363827891
2,1, 1,21, 0,23, 0.00,60.00,WinterDesignDay
7,-6.300000000000007
652,16.010536285360084
1717,0.0
1720,0.1612900272
1721,0.026338032830031018
1722,0.134951994369969
1723,30.08456547797822
1724,27.0393746029954
1730,40.84844992584317
1952,12.92878363827891
1953,12.92878363827891
2,1, 1,21, 0,24, 0.00,60.00,WinterDesignDay
7,-6.300000000000007
652,16.010203303875249
1717,0.0
1720,0.1612900272
1721,0.026316486781921338
1722,0.13497354041807867
1723,30.076089548252374
1724,27.033276474608888
1730,40.84761443154918
1952,12.92878363827891
1953,12.92878363827891
1,ATLANTA-HARTSFIELD.JACKSON.INTL.AP_GA_USA ANN CLG .4% CONDNS DB=>MWB,  33.63, -84.43,  -5.00, 308.00
2,1, 7,21, 0, 1, 0.00,60.00,SummerDesignDay
7,26.32025
652,20.398511189010756
1717,9177.34452961849
1720,0.5467642243600003
1721,0.3111601831153966
1722,0.2356040412446035
1723,9.998990532917237
1724,14.003956115265093
1730,28.938372316382276
1952,6.8834496140372709
1953,10.935546075580218
2,1, 7,21, 0, 2, 0.00,60.00,SummerDesignDay
7,25.84683333333334
652,20.27182992424639
1717,8998.715738667881
1720,0.5467642243600003
1721,0.314345604067233
1722,0.232418620292767
1723,10.105275947519269
1724,14.032411180176322
1730,28.985522487157718
1952,7.119586882741276
1953,11.093854465602853
2,1, 7,21, 0, 3, 0.00,60.00,SummerDesignDay
7,25.515125
652,20.171588314298505
1717,8847.5612415892
1720,0.5467642243600003
1721,0.3158600258976439
1722,0.23090419846235619
1723,10.189071421254239
1724,14.050333906076299
1730,29.051342324353546
1952,7.284739011941208
1953,11.193134977854136
2,1, 7,21, 0, 4, 0.00,60.00,SummerDesignDay
7,25.230124999999995
652,20.08603517440484
1717,8711.80555165163
1720,0.5467642243600003
1721,0.31712361016811987
1722,0.2296406141918802
1723,10.26051555935174
1724,14.062609195670577
1730,29.11828294667907
1952,7.425962837837838
1953,11.275190919497735
2,1, 7,21, 0, 5, 0.00,60.00,SummerDesignDay
7,24.993416666666673
652,20.01112015698529
1717,8589.41192183179
1720,0.5467642243600003
1721,0.31793921776675579
1722,0.22882500659324435
1723,10.323108865317586
1724,14.071853458430076
1730,29.184530755519256
1952,7.544027675604871
1953,11.33990755888917
2,1, 7,21, 0, 6, 0.00,60.00,SummerDesignDay
7,24.996583333333335
652,19.956175526771124
1717,8498.809331537701
1720,0.5467642243600003
1721,0.3143819624174197
1722,0.2323822619425802
1723,10.369501140285204
1724,14.078752658072182
1730,29.311001393256189
1952,7.545573915632699
1953,11.301961349779827
2,1, 7,21, 0, 7, 0.00,60.00,SummerDesignDay
7,25.42804166666666
652,20.339234503048325
1717,9091.51497274972
1720,0.5467642243600003
1721,0.3281426959241193
1722,0.21862152843588066
1723,10.057482986330358
1724,14.025060063574149
1730,30.12970280118399
1952,7.335703317964299
1953,11.35041209128612
2,1, 7,21, 0, 8, 0.00,60.00,SummerDesignDay
7,26.575958333333334
652,20.59731484496972
1717,9431.78396438934
1720,0.5467642243600003
1721,0.3199543301148464
1722,0.22680989424515347
1723,9.840043289633768
1724,13.955828616207935
1730,30.180979946952666
1952,6.840959799294429
1953,11.003873537114514
2,1, 7,21, 0, 9, 0.00,60.00,SummerDesignDay
7,28.287541666666664
652,20.970831918444753
1717,10020.56730148332
1720,0.5467642243600003
1721,0.33551700230675599
1722,0.21124722205324407
1723,9.529972186737727
1724,13.90223338663849
1730,30.180979946952666
1952,6.699999999999995
1953,11.119384730425553
2,1, 7,21, 0,10, 0.00,60.00,SummerDesignDay
7,29.995958333333328
652,21.428698756664156
1717,10764.689421640905
1720,0.5467642243600003
1721,0.36292888966399358
1722,0.18383533469600636
1723,9.150273639665894
1724,13.846619117633582
1730,30.180979946952666
1952,6.699999999999993
1953,11.443463033160749
2,1, 7,21, 0,11, 0.00,60.00,SummerDesignDay
7,31.514374999999995
652,22.076962849862949
1717,11854.501128214539
1720,0.5467642243600003
1721,0.40280846694749958
1722,0.1439557574125005
1723,8.612553932391048
1724,13.783422957888672
1730,30.180979946952666
1952,6.699999999999993
1953,11.917978121211242
2,1, 7,21, 0,12, 0.00,60.00,SummerDesignDay
7,32.697916666666667
652,22.787556433572655
1717,13054.691874283248
1720,0.5467642243600003
1721,0.44796385994003876
1722,0.09880036441996128
1723,8.01956410582058
1724,13.71282502922122
1730,30.180979946952666
1952,6.701327052547016
1953,12.445939332363201
2,1, 7,21, 0,13, 0.00,60.00,SummerDesignDay
7,33.55133333333333
652,23.367106291859384
1717,13569.519576793786
1720,0.5467642243600003
1721,0.5338927787792981
1722,0.01287144558070222
1723,7.778568529759762
1724,13.695880714168995
1730,30.180979946952666
1952,7.54281920943367
1953,13.538478162594446
2,1, 7,21, 0,14, 0.00,60.00,SummerDesignDay
7,34.16645833333333
652,23.76515220651448
1717,13496.698738228935
1720,0.5467642243600003
1721,0.5467642243600003
1722,0.0
1723,7.948760416264225
1724,13.834652834681057
1730,30.180979946952666
1952,7.867687534004657
1953,13.834652834681057
2,1, 7,21, 0,15, 0.00,60.00,SummerDesignDay
7,34.40000000000004
652,23.901047048013955
1717,13492.862718822978
1720,0.5467642243600003
1721,0.5467642243600003
1722,0.0
1723,8.090535530701136
1724,13.975033554996778
1730,30.180979946952666
1952,8.009480170587312
1953,13.975033554996778
2,1, 7,21, 0,16, 0.00,60.00,SummerDesignDay
7,34.110250000000018
652,23.731660227610683
1717,13483.8588145985
1720,0.5467642243600003
1721,0.5467642243600003
1722,0.0
1723,8.14416939282659
1724,14.024845944619456
1730,30.180979946952666
1952,8.063146233985119
1953,14.024845944619456
2,1, 7,21, 0,17, 0.00,60.00,SummerDesignDay
7,33.44366666666667
652,23.337563634323275
1717,13474.880681650415
1720,0.5467642243600003
1721,0.5467642243600003
1722,0.0
1723,8.073261874136647
1724,13.949883722857568
1730,30.180979946952666
1952,7.9922662057053339
1953,13.949883722857568
2,1, 7,21, 0,18, 0.00,60.00,SummerDesignDay
7,32.58708333333333
652,22.860318076402437
1717,13268.08926477549
1720,0.5467642243600003
1721,0.5108923814554438
1722,0.0358718429045564
1723,8.00175296995538
1724,13.788049408729967
1730,30.180979946952666
1952,7.479270800059104
1953,13.339741146758234
2,1, 7,21, 0,19, 0.00,60.00,SummerDesignDay
7,31.395624999999997
652,22.36219960046794
1717,12278.957219227495
1720,0.5467642243600003
1721,0.4211791833074425
1722,0.1255850410525577
1723,8.35793862630016
1724,13.71350212161602
1730,30.180979946952666
1952,6.700000003232973
1953,12.102668589562305
2,1, 7,21, 0,20, 0.00,60.00,SummerDesignDay
7,30.16379166666667
652,21.949275404843399
1717,11523.043997173429
1720,0.5467642243600003
1721,0.3945801562153907
1722,0.15218406814460928
1723,8.704084458775407
1724,13.730534002337129
1730,30.180979946952666
1952,6.699999999999993
1953,11.773560078934298
2,1, 7,21, 0,21, 0.00,60.00,SummerDesignDay
7,29.215374999999999
652,21.60840094899975
1717,10963.67294545199
1720,0.5467642243600003
1721,0.3734516295626783
1722,0.17331259479732179
1723,8.988820159677893
1724,13.771722527283315
1730,30.180979946952666
1952,6.699999999999993
1953,11.530017382409577
2,1, 7,21, 0,22, 0.00,60.00,SummerDesignDay
7,28.360375
652,21.34867650610748
1717,10556.092622261796
1720,0.5467642243600003
1721,0.35770240000472966
1722,0.1890618243552705
1723,9.206314063353665
1724,13.811744613259787
1730,30.180979946952666
1952,6.699999999999993
1953,11.35254898684661
2,1, 7,21, 0,23, 0.00,60.00,SummerDesignDay
7,27.60195833333334
652,20.81402507551475
1717,9717.24652953078
1720,0.5467642243600003
1721,0.32619088771681606
1722,0.22057333664318394
1723,9.646909348439467
1724,13.88698767733634
1730,28.783268237164397
1952,6.699999999999993
1953,10.98720369999133
2,1, 7,21, 0,24, 0.00,60.00,SummerDesignDay
7,26.936958333333334
652,20.572373541599807
1717,9410.655414057854
1720,0.5467642243600003
1721,0.31291923350420455
1722,0.2338449908557954
1723,9.853999251738243
1724,13.960585065544937
1730,28.631819180273543
1952,6.7027041521533159
1953,10.856418596904494
1,RUNPERIOD 1,  33.63, -84.43,  -5.00, 308.00
2,1, 7, 1, 0, 1, 0.00,60.00,Sunday
7,21.118333333333337
652,20.327913170300634
1717,0.0
1720,0.0
1721,0.0
1722,0.0
1723,13.884642519999977
1724,13.884642519999977
1730,11.991680629114408
1952,10.019819819819825
1953,10.019819819819825
2,1, 7, 1, 0, 2, 0.00,60.00,Sunday
7,22.098333333333334
652,20.64956594254609
1717,0.0
1720,0.0
1721,0.0
1722,0.0
1723,13.884642519999977
1724,13.884642519999977
1730,11.991680629114408
1952,10.019819819819825
1953,10.019819819819825
2,1, 7, 1, 0, 3, 0.00,60.00,Sunday
7,21.949166666666675
652,20.83332564704138
1717,0.0
1720,0.0
1721,0.0
1722,0.0
1723,13.884642519999977
1724,13.884642519999977
1730,11.991680629114408
1952,10.019819819819825
1953,10.019819819819825
2,1, 7, 1, 0, 4, 0.00,60.00,Sunday
7,21.79833333333333
652,20.95673275043857
1717,0.0
1720,0.0
1721,0.0
1722,0.0
1723,13.884642519999977
1724,13.884642519999977
1730,11.991680629114408
1952,10.019819819819825
1953,10.019819819819825
2,1, 7, 1, 0, 5, 0.00,60.00,Sunday
7,21.700000000000025
652,21.052836724356383
1717,0.0
1720,0.0
1721,0.0
1722,0.0
1723,13.884642519999977
1724,13.884642519999977
1730,11.991680629114408
1952,10.019819819819825
1953,10.019819819819825
2,1, 7, 1, 0, 6, 0.00,60.00,Sunday
7,21.954166666666663
652,21.15862735038847
1717,0.0
1720,0.0
1721,0.0
1722,0.0
1723,13.884642519999977
1724,13.884642519999977
1730,13.05479465171618
1952,10.019819819819825
1953,10.019819819819825
2,1, 7, 1, 0, 7, 0.00,60.00,Sunday
7,22.200000000000025
652,21.44646260477488
1717,0.0
1720,0.0
1721,0.0
1722,0.0
1723,13.884642519999977
1724,13.884642519999977
1730,14.193018578019089
1952,10.019819819819825
1953,10.019819819819825
2,1, 7, 1, 0, 8, 0.00,60.00,Sunday
7,23.31833333333333
652,21.813256130216645
1717,0.0
1720,0.0
1721,0.0
1722,0.0
1723,13.884642519999977
1724,13.884642519999977
1730,14.299431434878102
1952,10.019819819819825
1953,10.019819819819825
2,1, 7, 1, 0, 9, 0.00,60.00,Sunday
7,25.823333333333335
652,21.980382758903099
1717,10941.038144407972
1720,0.5467642243600003
1721,0.22288782287845416
1722,0.32387640148154586
1723,14.385565779999986
1724,19.166210512410449
1730,14.963090954886008
1952,7.291715239072504
1953,12.12602706930323
2,1, 7, 1, 0,10, 0.00,60.00,Sunday
7,27.759166666666667
652,22.199918038055775
1717,10378.71373941078
1720,0.5467642243600003
1721,0.21364786377395895
1722,0.33311636058604107
1723,13.88875951
1724,18.42305294126646
1730,14.451427194011738
1952,6.700000005584965
1953,11.28147690321078
2,1, 7, 1, 0,11, 0.00,60.00,Sunday
7,29.164166666666668
652,22.586124076908367
1717,13069.703984597807
1720,0.5467642243600003
1721,0.2786045538071647
1722,0.26815967055283526
1723,12.286297780000009
1724,17.99362005084029
1730,13.407958350380122
1952,6.699999999999993
1953,12.455923838932327
2,1, 7, 1, 0,12, 0.00,60.00,Sunday
7,30.0
652,23.205676347238517
1717,9897.677546716137
1720,0.5467642243600003
1721,0.213021104023637
1722,0.33374312033636319
1723,13.595195480000003
1724,17.91896807814653
1730,13.50502613547374
1952,6.699999999999993
1953,11.070952094386517
2,1, 7, 1, 0,13, 0.00,60.00,Sunday
7,30.86416666666667
652,23.626605525109704
1717,13684.80310058807
1720,0.5467642243600003
1721,0.3564361756951841
1722,0.1903280486648159
1723,11.71079975999999
1724,17.68574038332018
1730,13.297829029703447
1952,8.374298969122945
1953,14.417241991415226
2,1, 7, 1, 0,14, 0.00,60.00,Sunday
7,29.717500000000006
652,23.419851013975248
1717,13684.260174209841
1720,0.5467642243600003
1721,0.5428400012904484
1722,0.003924223069551879
1723,11.434755377104166
1724,17.40896742452259
1730,13.353444171969679
1952,11.301350147528723
1953,17.35061699312599
2,1, 7, 1, 0,15, 0.00,60.00,Sunday
7,28.613333333333335
652,23.174668592426337
1717,13465.365400100052
1720,0.5467642243600003
1721,0.5467642243600003
1722,0.0
1723,11.290447332424412
1724,17.16887110842908
1730,13.38150607850947
1952,11.211471985683737
1953,17.16887110842908
2,1, 7, 1, 0,16, 0.00,60.00,Sunday
7,28.0275
652,22.966899538007529
1717,7225.7214671242259
1720,0.5467642243600003
1721,0.165088020661579
1722,0.38167620369842089
1723,14.355624359999986
1724,17.512848608011116
1730,13.547284183327835
1952,6.845612704806038
1953,10.056100467451579
2,1, 7, 1, 0,17, 0.00,60.00,Sunday
7,25.276666666666665
652,22.34624597985979
1717,12217.336391739505
1720,0.5467642243600003
1721,0.3030063674298844
1722,0.24375785693011565
1723,11.774173949999986
1724,17.108498786854079
1730,14.03531826316863
1952,7.3823564174495959
1953,12.763836138470549
2,1, 7, 1, 0,18, 0.00,60.00,Sunday
7,23.594999999999997
652,21.708828916105099
1717,7705.823643096981
1720,0.5467642243600003
1721,0.21114804334604218
1722,0.3356161810139579
1723,13.70700918
1724,17.07338445197159
1730,14.426036947178553
1952,8.23338233438055
1953,11.646938614666376
2,1, 7, 1, 0,19, 0.00,60.00,Sunday
7,23.604999999999995
652,21.541636270565115
1717,0.0
1720,0.0
1721,0.0
1722,0.0
1723,13.70700918
1724,13.70700918
1730,13.821324785203869
1952,8.381801016317308
1953,8.381801016317308
2,1, 7, 1, 0,20, 0.00,60.00,Sunday
7,21.917500000000005
652,21.36532107654207
1717,8656.453458975317
1720,0.5467642243600003
1721,0.22823862767061893
1722,0.318525596689381
1723,14.46155855999999
1724,18.24404516940052
1730,12.326861666566556
1952,9.042719291221962
1953,12.872397115333135
2,1, 7, 1, 0,21, 0.00,60.00,Sunday
7,20.304999999999994
652,20.865464321717377
1717,6971.660305152047
1720,0.5467642243600003
1721,0.207080327554109
1722,0.33968389680589086
1723,14.996604459999988
1724,18.043378471559718
1730,12.51809855823524
1952,9.873288190102727
1953,12.967260656384239
2,1, 7, 1, 0,22, 0.00,60.00,Sunday
7,20.294999999999996
652,20.594658995972045
1717,8087.145398910096
1720,0.5467642243600003
1721,0.2446209815352374
1722,0.30214324282476276
1723,14.339022470000005
1724,17.872622561024749
1730,11.992766061992969
1952,9.868789815972605
1953,13.449579464128611
2,1, 7, 1, 0,23, 0.00,60.00,Sunday
7,20.0
652,20.382731314452199
1717,6894.428781565756
1720,0.5467642243600003
1721,0.21598230295974955
1722,0.33078192140025056
1723,14.753347640000009
1724,17.766159573744664
1730,12.215804124814799
1952,10.01977175868037
1953,13.079778855237417
2,1, 7, 1, 0,24, 0.00,60.00,Sunday
7,20.0
652,20.211648558487075
1717,8428.836385131373
1720,0.5467642243600003
1721,0.27017093698163216
1722,0.2765932873783679
1723,13.884642519999977
1724,17.567061489351244
1730,11.999611590178344
1952,10.019819819819825
1953,13.749422199848182
2,2, 7, 2, 0, 1, 0.00,60.00,Monday
7,20.0
652,19.980610657849586
1717,13585.79854432366
1720,0.5467642243600003
1721,0.5465640735146763
1722,0.00020015084532396717
1723,10.981257788079083
1724,16.91172248421964
1730,11.999611590178344
1952,10.90137492681048
1953,16.90901738380133
2,2, 7, 2, 0, 2, 0.00,60.00,Monday
7,20.0
652,19.620702191119159
1717,12667.949804325246
1720,0.5467642243600003
1721,0.507447003171523
1722,0.03931722118847706
1723,10.665947517693916
1724,16.19525819377187
1730,11.999611590178344
1952,10.173703447236772
1953,15.761872165604027
2,2, 7, 2, 0, 3, 0.00,60.00,Monday
7,19.440833333333335
652,19.18310680387631
1717,9944.555935790237
1720,0.5467642243600003
1721,0.47401712936663806
1722,0.07274709499336206
1723,11.007455825799492
1724,15.348475599438006
1730,11.999611590178344
1952,10.287888412389302
1953,14.676052714976806
2,2, 7, 2, 0, 4, 0.00,60.00,Monday
7,19.154166666666666
652,18.766246209318948
1717,7796.236692247443
1720,0.5467642243600003
1721,0.43682469617099908
1722,0.10993952818900109
1723,11.356802972330469
1724,14.760379037564566
1730,11.999611590178344
1952,10.442927392517003
1953,13.893652704280435
2,2, 7, 2, 0, 5, 0.00,60.00,Monday
7,19.399999999999996
652,18.504131243129188
1717,6718.638650794086
1720,0.5467642243600003
1721,0.388543048628085
1722,0.1582211757319149
1723,11.57714081644723
1724,14.510461289785918
1730,11.999611590178344
1952,10.317157168066668
1953,13.297629863842638
2,2, 7, 2, 0, 6, 0.00,60.00,Monday
7,19.399999999999996
652,18.363435049070039
1717,6226.79380616346
1720,0.5467642243600003
1721,0.3690622199194802
1722,0.17770200444051988
1723,11.69583768315629
1724,14.414514718360185
1730,11.999611590178344
1952,10.31711711711712
1953,13.082947978046898
2,2, 7, 2, 0, 7, 0.00,60.00,Monday
7,19.705
652,18.51856543008527
1717,6366.247154656801
1720,0.5467642243600003
1721,0.36965021325770788
1722,0.17711401110229198
1723,11.572435688094972
1724,14.35190059309769
1730,13.22490673791237
1952,10.17089788480649
1953,12.99751494873218
2,2, 7, 2, 0, 8, 0.00,60.00,Monday
7,21.118333333333337
652,19.551060192730487
1717,7911.127962761761
1720,0.5467642243600003
1721,0.40728789789918148
1722,0.13947632646081874
1723,10.727073510583807
1724,14.180170308686409
1730,11.411064926031959
1952,9.48373069582031
1953,12.983968237558809
2,2, 7, 2, 0, 9, 0.00,60.00,Monday
7,23.62333333333333
652,20.17695537943821
1717,8735.475869888383
1720,0.5467642243600003
1721,0.36757112568369945
1722,0.17919309867630063
1723,10.191479631283489
1724,14.003824407372174
1730,11.357964524395504
1952,8.247549536458142
1953,12.107027820308839
2,2, 7, 2, 0,10, 0.00,60.00,Monday
7,25.55916666666667
652,20.727956441631084
1717,9536.852793259608
1720,0.5467642243600003
1721,0.3475423363816644
1722,0.19922188797833566
1723,9.73384240728459
1724,13.895327416218459
1730,11.357964524395504
1952,7.274498035090321
1953,11.483109783519094
2,2, 7, 2, 0,11, 0.00,60.00,Monday
7,26.65916666666666
652,21.284154556982175
1717,10389.563202794832
1720,0.5467642243600003
1721,0.356641756665254
1722,0.19012246769474606
1723,9.271430777156642
1724,13.804301226461425
1730,11.357964524395504
1952,6.783661685662574
1953,11.363651596713549
2,2, 7, 2, 0,12, 0.00,60.00,Monday
7,28.06416666666667
652,21.90735996290808
1717,11389.348152330835
1720,0.5467642243600003
1721,0.3906140131587547
1722,0.15615021120124529
1723,8.752743463891879
1724,13.720949538454942
1730,11.357964524395504
1952,6.699999999999993
1953,11.715317375452392
2,2, 7, 2, 0,13, 0.00,60.00,Monday
7,29.459166666666666
652,23.934552171798609
1717,13496.638322931194
1720,0.5467642243600003
1721,0.5344714862743909
1722,0.012292738085609424
1723,7.673280733635194
1724,13.558596986118923
1730,11.357964524395504
1952,7.441155849551483
1953,13.403321101573015
2,2, 7, 2, 0,14, 0.00,60.00,Monday
7,29.440833333333328
652,23.08362717318486
1717,13105.22730725757
1720,0.5467642243600003
1721,0.48295515135737679
1722,0.0638090730026235
1723,7.81274774531197
1724,13.527658484307662
1730,11.357964524395504
1952,6.962647064686164
1953,12.737877452863414
2,2, 7, 2, 0,15, 0.00,60.00,Monday
7,29.76416666666667
652,22.91505568645703
1717,12857.439479880146
1720,0.5467642243600003
1721,0.45389231697730167
1722,0.09287190738269849
1723,7.9040048148038519
1724,13.511033340713086
1730,11.357964524395504
1952,6.699999999999993
1953,12.354126478973992
2,2, 7, 2, 0,16, 0.00,60.00,Monday
7,30.854166666666669
652,22.874446879767093
1717,12737.026201346223
1720,0.5467642243600003
1721,0.4510213184649005
1722,0.09574290589509965
1723,7.9361980462319618
1724,13.4907745293413
1730,11.357964524395504
1952,6.699999999999993
1953,12.301674942347124
2,2, 7, 2, 0,17, 0.00,60.00,Monday
7,30.84583333333334
652,22.686541301411645
1717,12376.645372376217
1720,0.5467642243600003
1721,0.43850672229879436
1722,0.10825750206120584
1723,8.091331647664415
1724,13.489026214460795
1730,11.357964524395504
1952,6.699999999999993
1953,12.144795465236682
2,2, 7, 2, 0,18, 0.00,60.00,Monday
7,30.59999999999997
652,23.999560171264098
1717,13495.89006765493
1720,0.5467642243600003
1721,0.5387878851243707
1722,0.007976339235629592
1723,7.490657605809956
1724,13.375291418960322
1730,11.357964524395504
1952,7.314322413239471
1953,13.276759295832847
2,2, 7, 2, 0,19, 0.00,60.00,Monday
7,29.430833333333337
652,21.610087910093765
1717,10319.67288519856
1720,0.5467642243600003
1721,0.373083411550559
1722,0.17368081280944112
1723,8.96178675112937
1724,13.463622141364065
1730,30.324883018171265
1952,6.75731899596745
1953,11.310057049398278
2,2, 7, 2, 0,20, 0.00,60.00,Monday
7,26.927500000000003
652,20.141709739257345
1717,8165.404609287027
1720,0.5467642243600003
1721,0.2838858927918189
1722,0.26287833156818127
1723,10.198105885964003
1724,13.761648392108528
1730,32.081034919775927
1952,6.806747806659074
1953,10.417423812979035
2,2, 7, 2, 0,21, 0.00,60.00,Monday
7,24.430833333333334
652,19.442965203515539
1717,7324.499145767546
1720,0.5467642243600003
1721,0.28722037330649488
1722,0.259543851053505
1723,10.790051499800065
1724,13.987164941346496
1730,31.97529505651488
1952,7.8053358271082369
1953,11.04959086225585
2,2, 7, 2, 0,22, 0.00,60.00,Monday
7,23.045833333333339
652,19.045285616053083
1717,6872.484861744657
1720,0.5467642243600003
1721,0.29650020203907737
1722,0.2502640223209226
1723,11.125511697730808
1724,14.125613254268126
1730,21.28085691195277
1952,8.506349810575625
1953,11.553597490145473
2,2, 7, 2, 0,23, 0.00,60.00,Monday
7,22.494999999999999
652,18.844974626844367
1717,6664.891876908258
1720,0.5467642243600003
1721,0.2980579798399347
1722,0.24870624452006533
1723,11.293171465335197
1724,14.202790560602045
1730,12.578933238950358
1952,8.778611613793512
1953,11.735379096176246
2,2, 7, 2, 0,24, 0.00,60.00,Monday
7,21.640833333333334
652,18.656618268057856
1717,6407.393138078201
1720,0.5467642243600003
1721,0.30813735345112255
1722,0.23862687090887767
1723,11.450161427942288
1724,14.247492791128126
1730,11.999887185021512
1952,9.197750261159757
1953,12.042232131733212
End of Data
 Number of Records Written=        1056
