Program Version,EnergyPlus, Version 9.5.0-de239b2e5f, YMD=2021.07.21 21:35
1,5,Environment Title[],Latitude[deg],Longitude[deg],Time Zone[],Elevation[m]
2,8,Day of Simulation[],Month[],Day of Month[],DST Indicator[1=yes 0=no],Hour[],StartMinute[],EndMinute[],DayType
3,5,Cumulative Day of Simulation[],Month[],Day of Month[],DST Indicator[1=yes 0=no],DayType  ! When Daily Report Variables Requested
4,2,Cumulative Days of Simulation[],Month[]  ! When Monthly Report Variables Requested
5,1,Cumulative Days of Simulation[] ! When Run Period Report Variables Requested
6,1,Calendar Year of Simulation[] ! When Annual Report Variables Requested
7,1,Environment,Site Outdoor Air Drybulb Temperature [C] !Hourly
652,1,PERIMETER_BOT_ZN_1,Zone Mean Air Temperature [C] !Hourly
1717,1,PERI1_TOP_LOTEMP,Zone Radiant HVAC Cooling Rate [W] !Hourly
1720,1,PERI1_TOP_LOTEMP,Zone Radiant HVAC Mass Flow Rate [kg/s] !Hourly
1721,1,PERI1_TOP_LOTEMP,Zone Radiant HVAC Injection Mass Flow Rate [kg/s] !Hourly
1722,1,PERI1_TOP_LOTEMP,Zone Radiant HVAC Recirculation Mass Flow Rate [kg/s] !Hourly
1723,1,PERI1_TOP_LOTEMP,Zone Radiant HVAC Inlet Temperature [C] !Hourly
1724,1,PERI1_TOP_LOTEMP,Zone Radiant HVAC Outlet Temperature [C] !Hourly
1730,1,PERI2_TOP_LOTEMP,Zone Radiant HVAC Outlet Temperature [C] !Hourly
1952,1,PERI1_TOP_LOTEMP_CHW_INLET,System Node Temperature [C] !Hourly
1953,1,PERI1_TOP_LOTEMP_CHW_OUTLET,System Node Temperature [C] !Hourly
End of Data Dictionary
1,ATLANTA-HARTSFIELD.JACKSON.INTL.AP_GA_USA ANN HTG 99.6% CONDNS DB,  33.63, -84.43,  -5.00, 308.00
2,1, 1,21, 0, 1, 0.00,60.00,WinterDesignDay
7,-6.300000000000007
652,16.010609115123445
1717,0.0
1720,0.15232947013333335
1721,0.02488194441315656
1722,0.12744752572017679
1723,30.079382597406047
1724,27.201924699105157
1730,40.8478521185969
1952,12.92878363827891
1953,12.92878363827891
2,1, 1,21, 0, 2, 0.00,60.00,WinterDesignDay
7,-6.300000000000007
652,16.01273822320849
1717,0.0
1720,0.1433689130666667
1721,0.023379979485560276
1722,0.1199889335811064
1723,30.069259792964968
1724,27.36613550872097
1730,40.847169716203179
1952,12.92878363827891
1953,12.92878363827891
2,1, 1,21, 0, 3, 0.00,60.00,WinterDesignDay
7,-6.300000000000007
652,16.009754289396605
1717,0.0
1720,0.1612900272
1721,0.026354789493765786
1722,0.13493523770623426
1723,30.0841053941916
1724,27.036498633292003
1730,40.84655177627316
1952,12.92878363827891
1953,12.92878363827891
2,1, 1,21, 0, 4, 0.00,60.00,WinterDesignDay
7,-6.300000000000007
652,16.012345712258907
1717,0.0
1720,0.1433689130666667
1721,0.023405166418221724
1722,0.11996374664844496
1723,30.060048497096419
1724,27.35309865009221
1730,40.84599047015952
1952,12.92878363827891
1953,12.92878363827891
2,1, 1,21, 0, 5, 0.00,60.00,WinterDesignDay
7,-6.300000000000007
652,16.010653707673993
1717,0.0
1720,0.15232947013333335
1721,0.024911031019644395
1722,0.12741843911368895
1723,30.089785192705006
1724,27.209362874453445
1730,40.84547994137283
1952,12.92878363827891
1953,12.92878363827891
2,1, 1,21, 0, 6, 0.00,60.00,WinterDesignDay
7,-6.300000000000007
652,16.010425968216894
1717,0.0
1720,0.1612900272
1721,0.026346745363186716
1722,0.13494328183681329
1723,30.07455333460962
1724,27.02775983294358
1730,40.84501466202039
1952,12.92878363827891
1953,12.92878363827891
2,1, 1,21, 0, 7, 0.00,60.00,WinterDesignDay
7,-6.300000000000007
652,16.073699118345567
1717,0.0
1720,0.026881671200000003
1721,0.004545817273392907
1722,0.022335853926607097
1723,30.083041682519825
1724,29.553151373821028
1730,40.85634532840337
1952,12.92878363827891
1953,12.92878363827891
2,1, 1,21, 0, 8, 0.00,60.00,WinterDesignDay
7,-6.300000000000007
652,16.028001835787124
1717,0.0
1720,0.053763342400000007
1721,0.00907130454787875
1722,0.04469203785212125
1723,30.01710263065029
1724,28.960210681353474
1730,40.86430005759646
1952,12.92878363827891
1953,12.92878363827891
2,1, 1,21, 0, 9, 0.00,60.00,WinterDesignDay
7,-6.300000000000007
652,16.02311659245585
1717,0.0
1720,0.07168445653333335
1721,0.012115558706423028
1722,0.05956889782691031
1723,30.041617859308077
1724,28.630172480891735
1730,40.86644867532896
1952,12.92878363827891
1953,12.92878363827891
2,1, 1,21, 0,10, 0.00,60.00,WinterDesignDay
7,-6.300000000000007
652,16.022960354199978
1717,0.0
1720,0.07168445653333335
1721,0.012104302486088608
1722,0.05958015404724473
1723,30.03801987972736
1724,28.628024646772464
1730,40.8676910695514
1952,12.92878363827891
1953,12.92878363827891
2,1, 1,21, 0,11, 0.00,60.00,WinterDesignDay
7,-6.300000000000007
652,16.0212300000227
1717,0.0
1720,0.07168445653333335
1721,0.012121674549151689
1722,0.059562781984181658
1723,30.054968290325996
1724,28.643013536804486
1730,40.868609028008517
1952,12.92878363827891
1953,12.92878363827891
2,1, 1,21, 0,12, 0.00,60.00,WinterDesignDay
7,-6.300000000000007
652,16.02219149250126
1717,0.0
1720,0.07168445653333335
1721,0.012086843099457595
1722,0.059597613433875738
1723,30.032485090810437
1724,28.62473692692684
1730,40.86937513499415
1952,12.92878363827891
1953,12.92878363827891
2,1, 1,21, 0,13, 0.00,60.00,WinterDesignDay
7,-6.300000000000007
652,16.02128655571646
1717,0.0
1720,0.08064501360000001
1721,0.013629165055218887
1722,0.06701584854478113
1723,30.044316784846197
1724,28.45667289380263
1730,40.870045507975579
1952,12.92878363827891
1953,12.92878363827891
2,1, 1,21, 0,14, 0.00,60.00,WinterDesignDay
7,-6.300000000000007
652,16.021937386698668
1717,0.0
1720,0.08064501360000001
1721,0.01359104003476255
1722,0.06705397356523747
1723,30.0397769170413
1724,28.4572676926426
1730,40.870641910055159
1952,12.92878363827891
1953,12.92878363827891
2,1, 1,21, 0,15, 0.00,60.00,WinterDesignDay
7,-6.300000000000007
652,16.02298533338868
1717,0.0
1720,0.07168445653333335
1721,0.012083284600161183
1722,0.05960117193317215
1723,30.035304999430914
1724,28.628125350336285
1730,40.87117544716125
1952,12.92878363827891
1953,12.92878363827891
2,1, 1,21, 0,16, 0.00,60.00,WinterDesignDay
7,-6.300000000000007
652,16.023022653318649
1717,0.0
1720,0.07168445653333335
1721,0.012080116858983737
1722,0.0596043396743496
1723,30.040541984301837
1724,28.633806429085689
1730,40.87165383278444
1952,12.92878363827891
1953,12.92878363827891
2,1, 1,21, 0,17, 0.00,60.00,WinterDesignDay
7,-6.300000000000007
652,16.02215085413572
1717,0.0
1720,0.07168445653333335
1721,0.012086321605640783
1722,0.05959813492769255
1723,30.036031851258586
1724,28.628579409157795
1730,40.87208308582655
1952,12.92878363827891
1953,12.92878363827891
2,1, 1,21, 0,18, 0.00,60.00,WinterDesignDay
7,-6.300000000000007
652,16.021691027472888
1717,0.0
1720,0.07168445653333335
1721,0.012080658611716196
1722,0.059603797921617147
1723,30.03866232770033
1724,28.631906658484448
1730,40.87246847481149
1952,12.92878363827891
1953,12.92878363827891
2,1, 1,21, 0,19, 0.00,60.00,WinterDesignDay
7,-6.300000000000007
652,16.000237940764867
1717,0.0
1720,0.2329744837333332
1721,0.038551936305908408
1722,0.19442254742742494
1723,30.153393698943096
1724,25.697487463732139
1730,40.86101671793986
1952,12.92878363827891
1953,12.92878363827891
2,1, 1,21, 0,20, 0.00,60.00,WinterDesignDay
7,-6.300000000000007
652,16.013380470832599
1717,0.0
1720,0.15232947013333335
1721,0.02474247565502461
1722,0.1275869944783087
1723,30.052387517954704
1724,27.19260944519484
1730,40.85297522097049
1952,12.92878363827891
1953,12.92878363827891
2,1, 1,21, 0,21, 0.00,60.00,WinterDesignDay
7,-6.300000000000007
652,16.01318963163228
1717,0.0
1720,0.1612900272
1721,0.02624468555306136
1722,0.13504534164693864
1723,30.05878713983577
1724,27.02577150271062
1730,40.850752014106259
1952,12.92878363827891
1953,12.92878363827891
2,1, 1,21, 0,22, 0.00,60.00,WinterDesignDay
7,-6.300000000000007
652,16.012820823247055
1717,0.0
1720,0.1433689130666667
1721,0.023357015894772728
1722,0.12001189717189395
1723,30.059429394532605
1724,27.359595970791366
1730,40.84943837555101
1952,12.92878363827891
1953,12.92878363827891
2,1, 1,21, 0,23, 0.00,60.00,WinterDesignDay
7,-6.300000000000007
652,16.010536285360084
1717,0.0
1720,0.1612900272
1721,0.026338032830031018
1722,0.134951994369969
1723,30.08456547797822
1724,27.0393746029954
1730,40.84844992584317
1952,12.92878363827891
1953,12.92878363827891
2,1, 1,21, 0,24, 0.00,60.00,WinterDesignDay
7,-6.300000000000007
652,16.010203303875249
1717,0.0
1720,0.1612900272
1721,0.026316486781921338
1722,0.13497354041807867
1723,30.076089548252374
1724,27.033276474608888
1730,40.84761443154918
1952,12.92878363827891
1953,12.92878363827891
1,ATLANTA-HARTSFIELD.JACKSON.INTL.AP_GA_USA ANN CLG .4% CONDNS DB=>MWB,  33.63, -84.43,  -5.00, 308.00
2,1, 7,21, 0, 1, 0.00,60.00,SummerDesignDay
7,26.32025
652,20.398511189010756
1717,9177.34452961849
1720,0.5467642243600003
1721,0.3111601831153966
1722,0.2356040412446035
1723,9.998990532917237
1724,14.003956115265093
1730,28.938372316382276
1952,6.8834496140372709
1953,10.935546075580218
2,1, 7,21, 0, 2, 0.00,60.00,SummerDesignDay
7,25.84683333333334
652,20.27182992424639
1717,8998.715738667881
1720,0.5467642243600003
1721,0.314345604067233
1722,0.232418620292767
1723,10.105275947519269
1724,14.032411180176322
1730,28.985522487157718
1952,7.119586882741276
1953,11.093854465602853
2,1, 7,21, 0, 3, 0.00,60.00,SummerDesignDay
7,25.515125
652,20.171588314298505
1717,8847.5612415892
1720,0.5467642243600003
1721,0.3158600258976439
1722,0.23090419846235619
1723,10.189071421254239
1724,14.050333906076299
1730,29.051342324353546
1952,7.284739011941208
1953,11.193134977854136
2,1, 7,21, 0, 4, 0.00,60.00,SummerDesignDay
7,25.230124999999995
652,20.08603517440484
1717,8711.80555165163
1720,0.5467642243600003
1721,0.31712361016811987
1722,0.2296406141918802
1723,10.26051555935174
1724,14.062609195670577
1730,29.11828294667907
1952,7.425962837837838
1953,11.275190919497735
2,1, 7,21, 0, 5, 0.00,60.00,SummerDesignDay
7,24.993416666666673
652,20.01112015698529
1717,8589.41192183179
1720,0.5467642243600003
1721,0.31793921776675579
1722,0.22882500659324435
1723,10.323108865317586
1724,14.071853458430076
1730,29.184530755519256
1952,7.544027675604871
1953,11.33990755888917
2,1, 7,21, 0, 6, 0.00,60.00,SummerDesignDay
7,24.996583333333335
652,19.956175526771124
1717,8498.809331537701
1720,0.5467642243600003
1721,0.3143819624174197
1722,0.2323822619425802
1723,10.369501140285204
1724,14.078752658072182
1730,29.311001393256189
1952,7.545573915632699
1953,11.301961349779827
2,1, 7,21, 0, 7, 0.00,60.00,SummerDesignDay
7,25.42804166666666
652,20.339234503048325
1717,9091.51497274972
1720,0.5467642243600003
1721,0.3281426959241193
1722,0.21862152843588066
1723,10.057482986330358
1724,14.025060063574149
1730,30.12970280118399
1952,7.335703317964299
1953,11.35041209128612
2,1, 7,21, 0, 8, 0.00,60.00,SummerDesignDay
7,26.575958333333334
652,20.59731484496972
1717,9431.78396438934
1720,0.5467642243600003
1721,0.3199543301148464
1722,0.22680989424515347
1723,9.840043289633768
1724,13.955828616207935
1730,30.180979946952666
1952,6.840959799294429
1953,11.003873537114514
2,1, 7,21, 0, 9, 0.00,60.00,SummerDesignDay
7,28.287541666666664
652,20.970831918444753
1717,10020.56730148332
1720,0.5467642243600003
1721,0.33551700230675599
1722,0.21124722205324407
1723,9.529972186737727
1724,13.90223338663849
1730,30.180979946952666
1952,6.699999999999995
1953,11.119384730425553
2,1, 7,21, 0,10, 0.00,60.00,SummerDesignDay
7,29.995958333333328
652,21.428698756664156
1717,10764.689421640905
1720,0.5467642243600003
1721,0.36292888966399358
1722,0.18383533469600636
1723,9.150273639665894
1724,13.846619117633582
1730,30.180979946952666
1952,6.699999999999993
1953,11.443463033160749
2,1, 7,21, 0,11, 0.00,60.00,SummerDesignDay
7,31.514374999999995
652,22.076962849862949
1717,11854.501128214539
1720,0.5467642243600003
1721,0.40280846694749958
1722,0.1439557574125005
1723,8.612553932391048
1724,13.783422957888672
1730,30.180979946952666
1952,6.699999999999993
1953,11.917978121211242
2,1, 7,21, 0,12, 0.00,60.00,SummerDesignDay
7,32.697916666666667
652,22.787556433572655
1717,13054.691874283248
1720,0.5467642243600003
1721,0.44796385994003876
1722,0.09880036441996128
1723,8.01956410582058
1724,13.71282502922122
1730,30.180979946952666
1952,6.701327052547016
1953,12.445939332363201
2,1, 7,21, 0,13, 0.00,60.00,SummerDesignDay
7,33.55133333333333
652,23.367106291859384
1717,13569.519576793786
1720,0.5467642243600003
1721,0.5338927787792981
1722,0.01287144558070222
1723,7.778568529759762
1724,13.695880714168995
1730,30.180979946952666
1952,7.54281920943367
1953,13.538478162594446
2,1, 7,21, 0,14, 0.00,60.00,SummerDesignDay
7,34.16645833333333
652,23.76515220651448
1717,13496.698738228935
1720,0.5467642243600003
1721,0.5467642243600003
1722,0.0
1723,7.948760416264225
1724,13.834652834681057
1730,30.180979946952666
1952,7.867687534004657
1953,13.834652834681057
2,1, 7,21, 0,15, 0.00,60.00,SummerDesignDay
7,34.40000000000004
652,23.901047048013955
1717,13492.862718822978
1720,0.5467642243600003
1721,0.5467642243600003
1722,0.0
1723,8.090535530701136
1724,13.975033554996778
1730,30.180979946952666
1952,8.009480170587312
1953,13.975033554996778
2,1, 7,21, 0,16, 0.00,60.00,SummerDesignDay
7,34.110250000000018
652,23.731660227610683
1717,13483.8588145985
1720,0.5467642243600003
1721,0.5467642243600003
1722,0.0
1723,8.14416939282659
1724,14.024845944619456
1730,30.180979946952666
1952,8.063146233985119
1953,14.024845944619456
2,1, 7,21, 0,17, 0.00,60.00,SummerDesignDay
7,33.44366666666667
652,23.337563634323275
1717,13474.880681650415
1720,0.5467642243600003
1721,0.5467642243600003
1722,0.0
1723,8.073261874136647
1724,13.949883722857568
1730,30.180979946952666
1952,7.9922662057053339
1953,13.949883722857568
2,1, 7,21, 0,18, 0.00,60.00,SummerDesignDay
7,32.58708333333333
652,22.860318076402437
1717,13268.08926477549
1720,0.5467642243600003
1721,0.5108923814554438
1722,0.0358718429045564
1723,8.00175296995538
1724,13.788049408729967
1730,30.180979946952666
1952,7.479270800059104
1953,13.339741146758234
2,1, 7,21, 0,19, 0.00,60.00,SummerDesignDay
7,31.395624999999997
652,22.36219960046794
1717,12278.957219227495
1720,0.5467642243600003
1721,0.4211791833074425
1722,0.1255850410525577
1723,8.35793862630016
1724,13.71350212161602
1730,30.180979946952666
1952,6.700000003232973
1953,12.102668589562305
2,1, 7,21, 0,20, 0.00,60.00,SummerDesignDay
7,30.16379166666667
652,21.949275404843399
1717,11523.043997173429
1720,0.5467642243600003
1721,0.3945801562153907
1722,0.15218406814460928
1723,8.704084458775407
1724,13.730534002337129
1730,30.180979946952666
1952,6.699999999999993
1953,11.773560078934298
2,1, 7,21, 0,21, 0.00,60.00,SummerDesignDay
7,29.215374999999999
652,21.60840094899975
1717,10963.67294545199
1720,0.5467642243600003
1721,0.3734516295626783
1722,0.17331259479732179
1723,8.988820159677893
1724,13.771722527283315
1730,30.180979946952666
1952,6.699999999999993
1953,11.530017382409577
2,1, 7,21, 0,22, 0.00,60.00,SummerDesignDay
7,28.360375
652,21.34867650610748
1717,10556.092622261796
1720,0.5467642243600003
1721,0.35770240000472966
1722,0.1890618243552705
1723,9.206314063353665
1724,13.811744613259787
1730,30.180979946952666
1952,6.699999999999993
1953,11.35254898684661
2,1, 7,21, 0,23, 0.00,60.00,SummerDesignDay
7,27.60195833333334
652,20.81402507551475
1717,9717.24652953078
1720,0.5467642243600003
1721,0.32619088771681606
1722,0.22057333664318394
1723,9.646909348439467
1724,13.88698767733634
1730,28.783268237164397
1952,6.699999999999993
1953,10.98720369999133
2,1, 7,21, 0,24, 0.00,60.00,SummerDesignDay
7,26.936958333333334
652,20.572373541599807
1717,9410.655414057854
1720,0.5467642243600003
1721,0.31291923350420455
1722,0.2338449908557954
1723,9.853999251738243
1724,13.960585065544937
1730,28.631819180273543
1952,6.7027041521533159
1953,10.856418596904494
1,RUNPERIOD 1,  33.63, -84.43,  -5.00, 308.00
2,1, 7, 1, 0, 1, 0.00,60.00,Sunday
7,21.118333333333337
652,19.658127486217255
1717,0.0
1720,0.0
1721,0.0
1722,0.0
1723,10.06695159329298
1724,10.06695159329298
1730,11.99219560723847
1952,10.019819820148618
1953,10.019819820148618
2,1, 7, 1, 0, 2, 0.00,60.00,Sunday
7,22.098333333333334
652,20.06470310332779
1717,0.0
1720,0.0
1721,0.0
1722,0.0
1723,10.06695159329298
1724,10.06695159329298
1730,11.99219560723847
1952,10.019819820148618
1953,10.019819820148618
2,1, 7, 1, 0, 3, 0.00,60.00,Sunday
7,21.949166666666675
652,20.362455543970126
1717,0.0
1720,0.0
1721,0.0
1722,0.0
1723,10.06695159329298
1724,10.06695159329298
1730,11.99219560723847
1952,10.019819820148618
1953,10.019819820148618
2,1, 7, 1, 0, 4, 0.00,60.00,Sunday
7,21.79833333333333
652,20.57736911464213
1717,0.0
1720,0.0
1721,0.0
1722,0.0
1723,10.06695159329298
1724,10.06695159329298
1730,11.99219560723847
1952,10.019819820148618
1953,10.019819820148618
2,1, 7, 1, 0, 5, 0.00,60.00,Sunday
7,21.700000000000025
652,20.74485399892428
1717,0.0
1720,0.0
1721,0.0
1722,0.0
1723,10.06695159329298
1724,10.06695159329298
1730,11.99219560723847
1952,10.019819820148618
1953,10.019819820148618
2,1, 7, 1, 0, 6, 0.00,60.00,Sunday
7,21.954166666666663
652,20.902376906052387
1717,0.0
1720,0.0
1721,0.0
1722,0.0
1723,10.06695159329298
1724,10.06695159329298
1730,13.055166132921434
1952,10.019819820148618
1953,10.019819820148618
2,1, 7, 1, 0, 7, 0.00,60.00,Sunday
7,22.200000000000025
652,20.853586352239448
1717,13670.39523341101
1720,0.5467642243600003
1721,0.5467642243600003
1722,0.0
1723,12.56427737631186
1724,18.534344431998588
1730,14.193094646021815
1952,12.491285490788819
1953,18.534344431998588
2,1, 7, 1, 0, 8, 0.00,60.00,Sunday
7,23.31833333333333
652,20.74161191500652
1717,13456.182381677441
1720,0.5467642243600003
1721,0.5467642243600003
1722,0.0
1723,11.912320798879473
1724,17.787782218810674
1730,14.299425798964356
1952,11.838502496575542
1953,17.787782218810674
2,1, 7, 1, 0, 9, 0.00,60.00,Sunday
7,25.823333333333335
652,20.955041010038256
1717,13460.979246756951
1720,0.5467642243600003
1721,0.5467642243600003
1722,0.0
1723,11.474365371943053
1724,17.35118390853621
1730,14.963090807073013
1952,11.397012274965368
1953,17.35118390853621
2,1, 7, 1, 0,10, 0.00,60.00,Sunday
7,27.759166666666667
652,21.488257656141625
1717,9283.81669612582
1720,0.5467642243600003
1721,0.21627989321536018
1722,0.33048433114463995
1723,13.332083170000005
1724,17.38738656493093
1730,14.451425458524519
1952,6.918666386378693
1953,11.029421662182936
2,1, 7, 1, 0,11, 0.00,60.00,Sunday
7,29.164166666666668
652,22.097768629096348
1717,8680.632608936457
1720,0.5467642243600003
1721,0.1961040793283497
1722,0.3506601450316503
1723,13.612370209999997
1724,17.404498817530265
1730,13.407952435893712
1952,6.699999999999993
1953,10.539308336020524
2,1, 7, 1, 0,12, 0.00,60.00,Sunday
7,30.0
652,22.793479502369743
1717,9878.756646544864
1720,0.5467642243600003
1721,0.2248415701637545
1722,0.3219226541962457
1723,12.992354520000014
1724,17.307116054823518
1730,13.505023902390482
1952,6.699999999999993
1953,11.061932880614677
2,1, 7, 1, 0,13, 0.00,60.00,Sunday
7,30.86416666666667
652,23.41012372833173
1717,5862.75548799657
1720,0.5467642243600003
1721,0.1287217889047226
1722,0.4180424354552773
1723,15.215060099999987
1724,17.777325333262419
1730,13.297900902117716
1952,6.699999999999993
1953,9.30946567437904
2,1, 7, 1, 0,14, 0.00,60.00,Sunday
7,29.717500000000006
652,23.441353952709926
1717,7888.742376646435
1720,0.5467642243600003
1721,0.17026260908956465
1722,0.3765016152704354
1723,14.47389362000001
1724,17.920936694471874
1730,13.35352239131397
1952,6.699999999999993
1953,10.194234456097553
2,1, 7, 1, 0,15, 0.00,60.00,Sunday
7,28.613333333333335
652,23.22362938045363
1717,13941.314225592398
1720,0.5467642243600003
1721,0.5467642243600003
1722,0.0
1723,11.409233771994215
1724,17.495416091630195
1730,13.381559292134178
1952,11.332590265588303
1953,17.495416091630195
2,1, 7, 1, 0,16, 0.00,60.00,Sunday
7,28.0275
652,22.90195406620183
1717,10020.250323855733
1720,0.5467642243600003
1721,0.23431864198603934
1722,0.3124455823739607
1723,13.049772510000017
1724,17.426406448224168
1730,13.547220113480363
1952,6.9785243718818938
1953,11.411939664137917
2,1, 7, 1, 0,17, 0.00,60.00,Sunday
7,25.276666666666665
652,22.464374473988227
1717,5466.298526777145
1720,0.5467642243600003
1721,0.12820572912396703
1722,0.41855849523603319
1723,15.4029802
1724,17.792063257484764
1730,14.035270186613229
1952,7.3823564174495959
1953,9.818641611616873
2,1, 7, 1, 0,18, 0.00,60.00,Sunday
7,23.594999999999997
652,22.101485351746296
1717,3766.4445186346608
1720,0.5467642243600003
1721,0.09292284966458177
1722,0.4538413746954183
1723,16.55129495999998
1724,18.197806687332976
1730,14.426005369785406
1952,8.233382334380554
1953,9.927106562965618
2,1, 7, 1, 0,19, 0.00,60.00,Sunday
7,23.604999999999995
652,21.80312470934206
1717,4129.898196812684
1720,0.5467642243600003
1721,0.09949673362603417
1722,0.4472674907339659
1723,16.61305600000002
1724,18.418473837952925
1730,13.821015808599969
1952,8.2384173912346
1953,10.091048288010468
2,1, 7, 1, 0,20, 0.00,60.00,Sunday
7,21.917500000000005
652,21.43846096033715
1717,4286.392005197126
1720,0.5467642243600003
1721,0.1119465362606413
1722,0.4348176880993588
1723,16.578471290000019
1724,18.45228924877723
1730,12.404545496774892
1952,9.03786045854592
1953,10.958891163918086
2,1, 7, 1, 0,21, 0.00,60.00,Sunday
7,20.304999999999994
652,20.865277584502946
1717,13713.882009064333
1720,0.5467642243600003
1721,0.5467642243600003
1722,0.0
1723,11.877472288401516
1724,17.86535405068243
1730,12.535308459191424
1952,11.80608658476112
1953,17.86535405068243
2,1, 7, 1, 0,22, 0.00,60.00,Sunday
7,20.294999999999996
652,20.40571279858705
1717,13453.666709055444
1720,0.5467642243600003
1721,0.5467642243600003
1722,0.0
1723,11.432939284214815
1724,17.30649563045269
1730,11.990605905325081
1952,11.35578268933166
1953,17.30649563045269
2,1, 7, 1, 0,23, 0.00,60.00,Sunday
7,20.0
652,20.036800339971518
1717,13428.171816714805
1720,0.5467642243600003
1721,0.5447773312004008
1722,0.001986893159599281
1723,10.96528464730531
1724,16.826925743937065
1730,11.990605905325081
1952,10.864467467507703
1953,16.804964792267467
2,1, 7, 1, 0,24, 0.00,60.00,Sunday
7,20.0
652,19.664466280512788
1717,13345.60627119873
1720,0.5467642243600003
1721,0.5467642243600003
1722,0.0
1723,10.316072046152533
1724,16.14059190555599
1730,11.990605905325081
1952,10.2446656417067
1953,16.14059190555599
2,2, 7, 2, 0, 1, 0.00,60.00,Monday
7,20.0
652,19.255077048184874
1717,9915.408625030834
1720,0.5467642243600003
1721,0.4544696432449745
1722,0.09229458111502574
1723,10.948963027358483
1724,15.277190169144811
1730,11.990605905325081
1952,10.01981981982519
1953,14.395190700755086
2,2, 7, 2, 0, 2, 0.00,60.00,Monday
7,20.0
652,18.89482415814749
1717,7950.044148288139
1720,0.5467642243600003
1721,0.4088998200881616
1722,0.13786440427183847
1723,11.250097341070433
1724,14.720715245250562
1730,11.990605905325081
1952,10.019819819819825
1953,13.537585529476145
2,2, 7, 2, 0, 3, 0.00,60.00,Monday
7,19.440833333333335
652,18.63825004815376
1717,6916.106716811733
1720,0.5467642243600003
1721,0.399848014943293
1722,0.14691620941670709
1723,11.464964605504696
1724,14.48440128899472
1730,11.990605905325081
1952,10.287888412389302
1953,13.354475803201549
2,2, 7, 2, 0, 4, 0.00,60.00,Monday
7,19.154166666666666
652,18.444076582368106
1717,6340.914747911591
1720,0.5467642243600003
1721,0.3896076513255646
1722,0.15715657303443548
1723,11.627698860477857
1724,14.396147847598599
1730,11.990605905325081
1952,10.442927392517005
1953,13.258529284955719
2,2, 7, 2, 0, 5, 0.00,60.00,Monday
7,19.399999999999996
652,18.310881034555068
1717,6017.295084742306
1720,0.5467642243600003
1721,0.36108843134155407
1722,0.1856757930184461
1723,11.739474498388839
1724,14.366715312949275
1730,11.990605905325081
1952,10.317157168066668
1953,12.991552397794294
2,2, 7, 2, 0, 6, 0.00,60.00,Monday
7,19.399999999999996
652,18.238290727694169
1717,5860.382384895596
1720,0.5467642243600003
1721,0.35246510995625648
1722,0.19429911440374343
1723,11.800808859188676
1724,14.359584364941286
1730,11.990605905325081
1952,10.31711711711712
1953,12.923047866581975
2,2, 7, 2, 0, 7, 0.00,60.00,Monday
7,19.705
652,18.441998309644583
1717,6166.997256582136
1720,0.5467642243600003
1721,0.3602088525233243
1722,0.18655537183667574
1723,11.636729432158417
1724,14.329252227095627
1730,13.217259736366149
1952,10.17089788480649
1953,12.910573707087274
2,2, 7, 2, 0, 8, 0.00,60.00,Monday
7,21.118333333333337
652,19.499013356343743
1717,7783.414236778638
1720,0.5467642243600003
1721,0.40179951166234448
1722,0.1449647126976556
1723,10.770717827142228
1724,14.168110932760497
1730,11.400800809498757
1952,9.48373069582031
1953,12.928265134300443
2,2, 7, 2, 0, 9, 0.00,60.00,Monday
7,23.62333333333333
652,20.11707139885925
1717,8610.4689867562
1720,0.5467642243600003
1721,0.3626756976460658
1722,0.18408852671393423
1723,10.241261503953137
1724,13.9991045608905
1730,11.347633504444657
1952,8.247549536458142
1953,12.05252677892355
2,2, 7, 2, 0,10, 0.00,60.00,Monday
7,25.55916666666667
652,20.675365415625334
1717,9435.044047624782
1720,0.5467642243600003
1721,0.34389479367799888
1722,0.2028694306820012
1723,9.777792234326123
1724,13.894912367758629
1730,11.347633504444657
1952,7.274498035090321
1953,11.438745599850816
2,2, 7, 2, 0,11, 0.00,60.00,Monday
7,26.65916666666666
652,21.23970641745368
1717,10306.462444421535
1720,0.5467642243600003
1721,0.35377303551436775
1722,0.1929911888456324
1723,9.30857527945756
1724,13.805245200730346
1730,11.347633504444657
1952,6.783661685662575
1953,11.327451653217544
2,2, 7, 2, 0,12, 0.00,60.00,Monday
7,28.06416666666667
652,21.869703592099318
1717,11319.808056354737
1720,0.5467642243600003
1721,0.38819082509496036
1722,0.15857339926503973
1723,8.784206972566495
1724,13.722130303639311
1730,11.347633504444657
1952,6.699999999999993
1953,11.685035126949215
2,2, 7, 2, 0,13, 0.00,60.00,Monday
7,29.459166666666666
652,23.90720977181918
1717,13491.013192974136
1720,0.5467642243600003
1721,0.5339199154218461
1722,0.01284430893815409
1723,7.668920662074195
1724,13.551774940224324
1730,11.347633504444657
1952,7.430048106865933
1953,13.389575119659283
2,2, 7, 2, 0,14, 0.00,60.00,Monday
7,29.440833333333328
652,23.054013520913736
1717,13044.505205217001
1720,0.5467642243600003
1721,0.4792061158359838
1722,0.06755810852401642
1723,7.831664603246903
1724,13.520131091155469
1730,11.347633504444657
1952,6.936193690456213
1953,12.683786171163528
2,2, 7, 2, 0,15, 0.00,60.00,Monday
7,29.76416666666667
652,22.890075033734595
1717,12803.917210668855
1720,0.5467642243600003
1721,0.45218264821895629
1722,0.09458157614104378
1723,7.924883960477162
1724,13.508610761998995
1730,11.347633504444657
1952,6.699999999999993
1953,12.330825082872457
2,2, 7, 2, 0,16, 0.00,60.00,Monday
7,30.854166666666669
652,22.853369989548086
1717,12694.900330439374
1720,0.5467642243600003
1721,0.4495930468305277
1722,0.09717117752947227
1723,7.953810294345843
1724,13.49004838977391
1730,11.347633504444657
1952,6.699999999999993
1953,12.283336831565583
2,2, 7, 2, 0,17, 0.00,60.00,Monday
7,30.84583333333334
652,22.66859725029882
1717,12342.041548659605
1720,0.5467642243600003
1721,0.4372981823430192
1722,0.10946604201698093
1723,8.106324118427429
1724,13.488954256107473
1730,11.347633504444657
1952,6.699999999999993
1953,12.129731271902467
2,2, 7, 2, 0,18, 0.00,60.00,Monday
7,30.59999999999997
652,23.986199385068298
1717,13493.441706821184
1720,0.5467642243600003
1721,0.5385968940128468
1722,0.008167330347153437
1723,7.487882468603327
1724,13.371443128743995
1730,11.347633504444657
1952,7.309258057627525
1953,13.270576808773193
2,2, 7, 2, 0,19, 0.00,60.00,Monday
7,29.430833333333337
652,21.596095304153999
1717,10287.571440391028
1720,0.5467642243600003
1721,0.3720305247048609
1722,0.1747336996551391
1723,8.97257573326661
1724,13.460422621438026
1730,30.333837204117125
1952,6.756201171809445
1953,11.294740362818266
2,2, 7, 2, 0,20, 0.00,60.00,Monday
7,26.927500000000003
652,20.130211465908184
1717,8140.619462550821
1720,0.5467642243600003
1721,0.2830855556031617
1722,0.2636786687568384
1723,10.20771512589639
1724,13.760451135836592
1730,32.09064030372631
1952,6.806747806659074
1953,10.406617451535052
2,2, 7, 2, 0,21, 0.00,60.00,Monday
7,24.430833333333334
652,19.433506931541105
1717,7305.579731893925
1720,0.5467642243600003
1721,0.28650727705629555
1722,0.2602569473037043
1723,10.79796746567439
1724,13.986829924430407
1730,31.984822742247596
1952,7.805335827108237
1953,11.041339986319901
2,2, 7, 2, 0,22, 0.00,60.00,Monday
7,23.045833333333339
652,19.037860763547824
1717,6858.305117274352
1720,0.5467642243600003
1721,0.2958973251875719
1722,0.2508668991724281
1723,11.131722699701906
1724,14.125639593405707
1730,21.28923554260628
1952,8.506349810575627
1953,11.547412911187936
2,2, 7, 2, 0,23, 0.00,60.00,Monday
7,22.494999999999999
652,18.839108041987449
1717,6653.891428044535
1720,0.5467642243600003
1721,0.29756864531889906
1722,0.2491955790411011
1723,11.29807924263068
1724,14.20290008198977
1730,12.499522944260223
1952,8.778611613793512
1953,11.730580906552046
2,2, 7, 2, 0,24, 0.00,60.00,Monday
7,21.640833333333334
652,18.65190405783983
1717,6398.5677937107889
1720,0.5467642243600003
1721,0.30771526446111666
1722,0.23904895989888348
1723,11.454103684071449
1724,14.247585246298888
1730,11.992750866193667
1952,9.197750261159757
1953,12.038382383971533
End of Data
 Number of Records Written=        1056
