Program Version,EnergyPlus, Version 9.5.0-de239b2e5f, YMD=2021.07.22 00:02
1,5,Environment Title[],Latitude[deg],Longitude[deg],Time Zone[],Elevation[m]
2,8,Day of Simulation[],Month[],Day of Month[],DST Indicator[1=yes 0=no],Hour[],StartMinute[],EndMinute[],DayType
3,5,Cumulative Day of Simulation[],Month[],Day of Month[],DST Indicator[1=yes 0=no],DayType  ! When Daily Report Variables Requested
4,2,Cumulative Days of Simulation[],Month[]  ! When Monthly Report Variables Requested
5,1,Cumulative Days of Simulation[] ! When Run Period Report Variables Requested
6,1,Calendar Year of Simulation[] ! When Annual Report Variables Requested
7,1,Environment,Site Outdoor Air Drybulb Temperature [C] !Hourly
652,1,PERIMETER_BOT_ZN_1,Zone Mean Air Temperature [C] !Hourly
1717,1,PERI1_TOP_LOTEMP,Zone Radiant HVAC Cooling Rate [W] !Hourly
1720,1,PERI1_TOP_LOTEMP,Zone Radiant HVAC Mass Flow Rate [kg/s] !Hourly
1721,1,PERI1_TOP_LOTEMP,Zone Radiant HVAC Injection Mass Flow Rate [kg/s] !Hourly
1722,1,PERI1_TOP_LOTEMP,Zone Radiant HVAC Recirculation Mass Flow Rate [kg/s] !Hourly
1723,1,PERI1_TOP_LOTEMP,Zone Radiant HVAC Inlet Temperature [C] !Hourly
1724,1,PERI1_TOP_LOTEMP,Zone Radiant HVAC Outlet Temperature [C] !Hourly
1730,1,PERI2_TOP_LOTEMP,Zone Radiant HVAC Outlet Temperature [C] !Hourly
1952,1,PERI1_TOP_LOTEMP_CHW_INLET,System Node Temperature [C] !Hourly
1953,1,PERI1_TOP_LOTEMP_CHW_OUTLET,System Node Temperature [C] !Hourly
End of Data Dictionary
1,ATLANTA-HARTSFIELD.JACKSON.INTL.AP_GA_USA ANN HTG 99.6% CONDNS DB,  33.63, -84.43,  -5.00, 308.00
2,1, 1,21, 0, 1, 0.00,60.00,WinterDesignDay
7,-6.300000000000007
652,16.010609115123445
1717,0.0
1720,0.15232947013333335
1721,0.02488194441315656
1722,0.12744752572017679
1723,30.079382597406047
1724,27.201924699105157
1730,40.8478521185969
1952,12.92878363827891
1953,12.92878363827891
2,1, 1,21, 0, 2, 0.00,60.00,WinterDesignDay
7,-6.300000000000007
652,16.01273822320849
1717,0.0
1720,0.1433689130666667
1721,0.023379979485560276
1722,0.1199889335811064
1723,30.069259792964968
1724,27.36613550872097
1730,40.847169716203179
1952,12.92878363827891
1953,12.92878363827891
2,1, 1,21, 0, 3, 0.00,60.00,WinterDesignDay
7,-6.300000000000007
652,16.009754289396605
1717,0.0
1720,0.1612900272
1721,0.026354789493765786
1722,0.13493523770623426
1723,30.0841053941916
1724,27.036498633292003
1730,40.84655177627316
1952,12.92878363827891
1953,12.92878363827891
2,1, 1,21, 0, 4, 0.00,60.00,WinterDesignDay
7,-6.300000000000007
652,16.012345712258907
1717,0.0
1720,0.1433689130666667
1721,0.023405166418221724
1722,0.11996374664844496
1723,30.060048497096419
1724,27.35309865009221
1730,40.84599047015952
1952,12.92878363827891
1953,12.92878363827891
2,1, 1,21, 0, 5, 0.00,60.00,WinterDesignDay
7,-6.300000000000007
652,16.010653707673993
1717,0.0
1720,0.15232947013333335
1721,0.024911031019644395
1722,0.12741843911368895
1723,30.089785192705006
1724,27.209362874453445
1730,40.84547994137283
1952,12.92878363827891
1953,12.92878363827891
2,1, 1,21, 0, 6, 0.00,60.00,WinterDesignDay
7,-6.300000000000007
652,16.010425968216894
1717,0.0
1720,0.1612900272
1721,0.026346745363186716
1722,0.13494328183681329
1723,30.07455333460962
1724,27.02775983294358
1730,40.84501466202039
1952,12.92878363827891
1953,12.92878363827891
2,1, 1,21, 0, 7, 0.00,60.00,WinterDesignDay
7,-6.300000000000007
652,16.073699118345567
1717,0.0
1720,0.026881671200000003
1721,0.004545817273392907
1722,0.022335853926607097
1723,30.083041682519825
1724,29.553151373821028
1730,40.85634532840337
1952,12.92878363827891
1953,12.92878363827891
2,1, 1,21, 0, 8, 0.00,60.00,WinterDesignDay
7,-6.300000000000007
652,16.028001835787124
1717,0.0
1720,0.053763342400000007
1721,0.00907130454787875
1722,0.04469203785212125
1723,30.01710263065029
1724,28.960210681353474
1730,40.86430005759646
1952,12.92878363827891
1953,12.92878363827891
2,1, 1,21, 0, 9, 0.00,60.00,WinterDesignDay
7,-6.300000000000007
652,16.02311659245585
1717,0.0
1720,0.07168445653333335
1721,0.012115558706423028
1722,0.05956889782691031
1723,30.041617859308077
1724,28.630172480891735
1730,40.86644867532896
1952,12.92878363827891
1953,12.92878363827891
2,1, 1,21, 0,10, 0.00,60.00,WinterDesignDay
7,-6.300000000000007
652,16.022960354199978
1717,0.0
1720,0.07168445653333335
1721,0.012104302486088608
1722,0.05958015404724473
1723,30.03801987972736
1724,28.628024646772464
1730,40.8676910695514
1952,12.92878363827891
1953,12.92878363827891
2,1, 1,21, 0,11, 0.00,60.00,WinterDesignDay
7,-6.300000000000007
652,16.0212300000227
1717,0.0
1720,0.07168445653333335
1721,0.012121674549151689
1722,0.059562781984181658
1723,30.054968290325996
1724,28.643013536804486
1730,40.868609028008517
1952,12.92878363827891
1953,12.92878363827891
2,1, 1,21, 0,12, 0.00,60.00,WinterDesignDay
7,-6.300000000000007
652,16.02219149250126
1717,0.0
1720,0.07168445653333335
1721,0.012086843099457595
1722,0.059597613433875738
1723,30.032485090810437
1724,28.62473692692684
1730,40.86937513499415
1952,12.92878363827891
1953,12.92878363827891
2,1, 1,21, 0,13, 0.00,60.00,WinterDesignDay
7,-6.300000000000007
652,16.02128655571646
1717,0.0
1720,0.08064501360000001
1721,0.013629165055218887
1722,0.06701584854478113
1723,30.044316784846197
1724,28.45667289380263
1730,40.870045507975579
1952,12.92878363827891
1953,12.92878363827891
2,1, 1,21, 0,14, 0.00,60.00,WinterDesignDay
7,-6.300000000000007
652,16.021937386698668
1717,0.0
1720,0.08064501360000001
1721,0.01359104003476255
1722,0.06705397356523747
1723,30.0397769170413
1724,28.4572676926426
1730,40.870641910055159
1952,12.92878363827891
1953,12.92878363827891
2,1, 1,21, 0,15, 0.00,60.00,WinterDesignDay
7,-6.300000000000007
652,16.02298533338868
1717,0.0
1720,0.07168445653333335
1721,0.012083284600161183
1722,0.05960117193317215
1723,30.035304999430914
1724,28.628125350336285
1730,40.87117544716125
1952,12.92878363827891
1953,12.92878363827891
2,1, 1,21, 0,16, 0.00,60.00,WinterDesignDay
7,-6.300000000000007
652,16.023022653318649
1717,0.0
1720,0.07168445653333335
1721,0.012080116858983737
1722,0.0596043396743496
1723,30.040541984301837
1724,28.633806429085689
1730,40.87165383278444
1952,12.92878363827891
1953,12.92878363827891
2,1, 1,21, 0,17, 0.00,60.00,WinterDesignDay
7,-6.300000000000007
652,16.02215085413572
1717,0.0
1720,0.07168445653333335
1721,0.012086321605640783
1722,0.05959813492769255
1723,30.036031851258586
1724,28.628579409157795
1730,40.87208308582655
1952,12.92878363827891
1953,12.92878363827891
2,1, 1,21, 0,18, 0.00,60.00,WinterDesignDay
7,-6.300000000000007
652,16.021691027472888
1717,0.0
1720,0.07168445653333335
1721,0.012080658611716196
1722,0.059603797921617147
1723,30.03866232770033
1724,28.631906658484448
1730,40.87246847481149
1952,12.92878363827891
1953,12.92878363827891
2,1, 1,21, 0,19, 0.00,60.00,WinterDesignDay
7,-6.300000000000007
652,16.000237940764867
1717,0.0
1720,0.2329744837333332
1721,0.038551936305908408
1722,0.19442254742742494
1723,30.153393698943096
1724,25.697487463732139
1730,40.86101671793986
1952,12.92878363827891
1953,12.92878363827891
2,1, 1,21, 0,20, 0.00,60.00,WinterDesignDay
7,-6.300000000000007
652,16.013380470832599
1717,0.0
1720,0.15232947013333335
1721,0.02474247565502461
1722,0.1275869944783087
1723,30.052387517954704
1724,27.19260944519484
1730,40.85297522097049
1952,12.92878363827891
1953,12.92878363827891
2,1, 1,21, 0,21, 0.00,60.00,WinterDesignDay
7,-6.300000000000007
652,16.01318963163228
1717,0.0
1720,0.1612900272
1721,0.02624468555306136
1722,0.13504534164693864
1723,30.05878713983577
1724,27.02577150271062
1730,40.850752014106259
1952,12.92878363827891
1953,12.92878363827891
2,1, 1,21, 0,22, 0.00,60.00,WinterDesignDay
7,-6.300000000000007
652,16.012820823247055
1717,0.0
1720,0.1433689130666667
1721,0.023357015894772728
1722,0.12001189717189395
1723,30.059429394532605
1724,27.359595970791366
1730,40.84943837555101
1952,12.92878363827891
1953,12.92878363827891
2,1, 1,21, 0,23, 0.00,60.00,WinterDesignDay
7,-6.300000000000007
652,16.010536285360084
1717,0.0
1720,0.1612900272
1721,0.026338032830031018
1722,0.134951994369969
1723,30.08456547797822
1724,27.0393746029954
1730,40.84844992584317
1952,12.92878363827891
1953,12.92878363827891
2,1, 1,21, 0,24, 0.00,60.00,WinterDesignDay
7,-6.300000000000007
652,16.010203303875249
1717,0.0
1720,0.1612900272
1721,0.026316486781921338
1722,0.13497354041807867
1723,30.076089548252374
1724,27.033276474608888
1730,40.84761443154918
1952,12.92878363827891
1953,12.92878363827891
1,ATLANTA-HARTSFIELD.JACKSON.INTL.AP_GA_USA ANN CLG .4% CONDNS DB=>MWB,  33.63, -84.43,  -5.00, 308.00
2,1, 7,21, 0, 1, 0.00,60.00,SummerDesignDay
7,26.32025
652,20.398511189351063
1717,9177.344530295077
1720,0.5467642243600003
1721,0.3111601831376828
1722,0.2356040412223172
1723,9.99899053262914
1724,14.00395611527184
1730,28.93837236467179
1952,6.8834496140372709
1953,10.935546075875049
2,1, 7,21, 0, 2, 0.00,60.00,SummerDesignDay
7,25.84683333333334
652,20.271829924289638
1717,8998.715738793026
1720,0.5467642243600003
1721,0.3143456040707734
1722,0.23241862028922667
1723,10.105275947481582
1724,14.032411180193299
1730,28.98552250241238
1952,7.119586882741276
1953,11.093854465657511
2,1, 7,21, 0, 3, 0.00,60.00,SummerDesignDay
7,25.515125
652,20.17158831433845
1717,8847.561241711614
1720,0.5467642243600003
1721,0.3158600259009373
1722,0.23090419845906269
1723,10.189071421222032
1724,14.050333906096315
1730,29.051342328152108
1952,7.284739011941207
1953,11.193134977906356
2,1, 7,21, 0, 4, 0.00,60.00,SummerDesignDay
7,25.230124999999995
652,20.08603517450833
1717,8711.8055518769
1720,0.5467642243600003
1721,0.3171236101756013
1722,0.22964061418439858
1723,10.26051555926616
1724,14.062609195682877
1730,29.118282948493588
1952,7.4259628378378379
1953,11.275190919595613
2,1, 7,21, 0, 5, 0.00,60.00,SummerDesignDay
7,24.993416666666673
652,20.01112015706279
1717,8589.41192199328
1720,0.5467642243600003
1721,0.31793921777225728
1722,0.22882500658774278
1723,10.323108865251746
1724,14.071853458430038
1730,29.184530758103646
1952,7.544027675604871
1953,11.339907558954915
2,1, 7,21, 0, 6, 0.00,60.00,SummerDesignDay
7,24.996583333333335
652,19.956175526732907
1717,8498.80933145637
1720,0.5467642243600003
1721,0.3143819624143237
1722,0.2323822619456763
1723,10.369501140321143
1724,14.078752658069665
1730,29.31100131344176
1952,7.545573915632699
1953,11.301961349741337
2,1, 7,21, 0, 7, 0.00,60.00,SummerDesignDay
7,25.42804166666666
652,20.339234502743144
1717,9091.514972166508
1720,0.5467642243600003
1721,0.3281426959046694
1722,0.21862152845533068
1723,10.057482986565163
1724,14.025060063554703
1730,30.129703871939094
1952,7.335703317964298
1953,11.35041209103187
2,1, 7,21, 0, 8, 0.00,60.00,SummerDesignDay
7,26.575958333333334
652,20.59731484420661
1717,9431.783962998346
1720,0.5467642243600003
1721,0.31995433006594339
1722,0.22680989429405677
1723,9.840043290283472
1724,13.955828616251383
1730,30.18098105286346
1952,6.840959799294429
1953,11.003873536508257
2,1, 7,21, 0, 9, 0.00,60.00,SummerDesignDay
7,28.287541666666664
652,20.970831918603645
1717,10020.567301814446
1720,0.5467642243600003
1721,0.3355170023168997
1722,0.21124722204310043
1723,9.529972186611433
1724,13.902233386656628
1730,30.18098105286346
1952,6.699999999999995
1953,11.119384730569978
2,1, 7,21, 0,10, 0.00,60.00,SummerDesignDay
7,29.995958333333328
652,21.428698756074714
1717,10764.689420514127
1720,0.5467642243600003
1721,0.3629288896269508
1722,0.18383533473304923
1723,9.150273640144832
1724,13.84661911762126
1730,30.18098105286346
1952,6.699999999999993
1953,11.44346303266949
2,1, 7,21, 0,11, 0.00,60.00,SummerDesignDay
7,31.514374999999995
652,22.07696284935879
1717,11854.501127290161
1720,0.5467642243600003
1721,0.40280846691536195
1722,0.14395575744463816
1723,8.61255393281234
1724,13.783422957907359
1730,30.18098105286346
1952,6.699999999999993
1953,11.917978120808652
2,1, 7,21, 0,12, 0.00,60.00,SummerDesignDay
7,32.697916666666667
652,22.78755643307701
1717,13054.691873377467
1720,0.5467642243600003
1721,0.44796385990372447
1722,0.09880036445627558
1723,8.01956410623284
1724,13.712825029238714
1730,30.18098105286346
1952,6.701327052514675
1953,12.445939331903159
2,1, 7,21, 0,13, 0.00,60.00,SummerDesignDay
7,33.55133333333333
652,23.367106291374154
1717,13569.519576743349
1720,0.5467642243600003
1721,0.5338927787402935
1722,0.012871445619706703
1723,7.778568529679961
1724,13.695880714066416
1730,30.18098105286346
1952,7.542819208858715
1953,13.538478161995363
2,1, 7,21, 0,14, 0.00,60.00,SummerDesignDay
7,34.16645833333333
652,23.765152206088695
1717,13496.698738242905
1720,0.5467642243600003
1721,0.5467642243600003
1722,0.0
1723,7.948760416016172
1724,13.834652834437682
1730,30.18098105286346
1952,7.8676875337651659
1953,13.834652834437682
2,1, 7,21, 0,15, 0.00,60.00,SummerDesignDay
7,34.40000000000004
652,23.90104704761296
1717,13492.862718819059
1720,0.5467642243600003
1721,0.5467642243600003
1722,0.0
1723,8.090535530390936
1724,13.975033554684272
1730,30.18098105286346
1952,8.009480170277076
1953,13.975033554684272
2,1, 7,21, 0,16, 0.00,60.00,SummerDesignDay
7,34.110250000000018
652,23.731660227168097
1717,13483.858814597968
1720,0.5467642243600003
1721,0.5467642243600003
1722,0.0
1723,8.144169392462173
1724,14.024845944254212
1730,30.18098105286346
1952,8.063146233622467
1953,14.024845944254212
2,1, 7,21, 0,17, 0.00,60.00,SummerDesignDay
7,33.44366666666667
652,23.337563633793598
1717,13474.880681646206
1720,0.5467642243600003
1721,0.5467642243600003
1722,0.0
1723,8.073261873708569
1724,13.949883722426696
1730,30.18098105286346
1952,7.992266205277255
1953,13.949883722426696
2,1, 7,21, 0,18, 0.00,60.00,SummerDesignDay
7,32.58708333333333
652,22.860318075826297
1717,13268.089263774937
1720,0.5467642243600003
1721,0.510892381308414
1722,0.03587184305158605
1723,8.00175297001579
1724,13.788049408353661
1730,30.18098105286346
1952,7.479270798313929
1953,13.339741144507789
2,1, 7,21, 0,19, 0.00,60.00,SummerDesignDay
7,31.395624999999997
652,22.36219959997053
1717,12278.957217953928
1720,0.5467642243600003
1721,0.42117918327255607
1722,0.125585041087444
1723,8.357938626716429
1724,13.713502121477023
1730,30.18098105286346
1952,6.700000003232973
1953,12.10266858900704
2,1, 7,21, 0,20, 0.00,60.00,SummerDesignDay
7,30.16379166666667
652,21.94927540449022
1717,11523.043996380828
1720,0.5467642243600003
1721,0.3945801561913053
1722,0.1521840681686947
1723,8.704084459071546
1724,13.73053400228798
1730,30.18098105286346
1952,6.699999999999993
1953,11.77356007858901
2,1, 7,21, 0,21, 0.00,60.00,SummerDesignDay
7,29.215374999999999
652,21.608400948757116
1717,10963.672944947146
1720,0.5467642243600003
1721,0.37345162954649516
1722,0.17331259481350493
1723,8.98882015988219
1724,13.771722527267512
1730,30.18098105286346
1952,6.699999999999993
1953,11.530017382189478
2,1, 7,21, 0,22, 0.00,60.00,SummerDesignDay
7,28.360375
652,21.34867650600144
1717,10556.09262204363
1720,0.5467642243600003
1721,0.35770239999773387
1722,0.18906182436226624
1723,9.206314063442399
1724,13.811744613253286
1730,30.18098105286346
1952,6.699999999999993
1953,11.352548986751371
2,1, 7,21, 0,23, 0.00,60.00,SummerDesignDay
7,27.60195833333334
652,20.814025075351116
1717,9717.246529192435
1720,0.5467642243600003
1721,0.32619088770613088
1722,0.22057333665386923
1723,9.646909348575275
1724,13.886987677324699
1730,28.78326831429627
1952,6.699999999999993
1953,10.987203699843887
2,1, 7,21, 0,24, 0.00,60.00,SummerDesignDay
7,26.936958333333334
652,20.572373541351003
1717,9410.655413536231
1720,0.5467642243600003
1721,0.3129192334880458
1722,0.23384499087195438
1723,9.853999251943242
1724,13.960585065522546
1730,28.63181918877056
1952,6.7027041521533159
1953,10.856418596677113
1,RUNPERIOD 1,  33.63, -84.43,  -5.00, 308.00
2,1, 7, 1, 0, 1, 0.00,60.00,Sunday
7,21.118333333333337
652,18.903697757441067
1717,1583.927190801905
1720,0.5467642243600003
1721,0.0651540838461932
1722,0.48161014051380698
1723,14.839188629999992
1724,15.53136957026352
1730,11.989834806690088
1952,9.483682634680854
1953,10.2230598993604
2,1, 7, 1, 0, 2, 0.00,60.00,Sunday
7,22.098333333333334
652,18.793483155830768
1717,10869.761589866745
1720,0.5467642243600003
1721,0.45411875036477647
1722,0.09264547399522363
1723,10.0
1724,14.743536728127007
1730,11.989834806690088
1952,8.978645698011276
1953,13.769313355588965
2,1, 7, 1, 0, 3, 0.00,60.00,Sunday
7,21.949166666666675
652,18.75562010213112
1717,0.0
1720,0.0
1721,0.0
1722,0.0
1723,10.0
1724,10.0
1730,11.989834806690088
1952,9.027867606039703
1953,9.027867606039703
2,1, 7, 1, 0, 4, 0.00,60.00,Sunday
7,21.79833333333333
652,18.69043676086415
1717,10960.948263624703
1720,0.5467642243600003
1721,0.46663674459285089
1722,0.08012747976714917
1723,10.0
1724,14.78333036412449
1730,11.989834806690088
1952,9.126276276276278
1953,13.956737569851449
2,1, 7, 1, 0, 5, 0.00,60.00,Sunday
7,21.700000000000025
652,18.251883185396094
1717,8955.673349300483
1720,0.5467642243600003
1721,0.45703510069001698
1722,0.08972912366998306
1723,10.0
1724,13.908233414900117
1730,11.989834806690088
1952,9.17746145709765
1953,13.132825801448459
2,1, 7, 1, 0, 6, 0.00,60.00,Sunday
7,21.954166666666663
652,18.369251084689706
1717,0.0
1720,0.0
1721,0.0
1722,0.0
1723,10.0
1724,10.0
1730,13.053633236221442
1952,9.17747747747747
1953,9.17747747747747
2,1, 7, 1, 0, 7, 0.00,60.00,Sunday
7,22.200000000000025
652,18.54462822156038
1717,11648.269673738474
1720,0.5467642243600003
1721,0.5383158558588208
1722,0.008448368501179407
1723,9.062467266648712
1724,14.144151904314214
1730,14.194275881614319
1952,8.934656643546296
1953,14.064875858812674
2,1, 7, 1, 0, 8, 0.00,60.00,Sunday
7,23.31833333333333
652,18.84242132590016
1717,44.78843012605545
1720,0.09112737072666669
1721,0.001960639163532
1722,0.08916673156313468
1723,15.485967360000013
1724,15.50554275957528
1730,14.299454812835633
1952,8.779665438803603
1953,8.807107986018638
2,1, 7, 1, 0, 9, 0.00,60.00,Sunday
7,25.823333333333335
652,19.237363663020127
1717,13529.471087108077
1720,0.5467642243600003
1721,0.5445008797454564
1722,0.00226334461454389
1723,8.22296833146422
1724,14.12368962966115
1730,14.963043242482373
1952,8.117915172787415
1953,14.09863774573763
2,1, 7, 1, 0,10, 0.00,60.00,Sunday
7,27.759166666666667
652,19.86129967061877
1717,0.0
1720,0.0
1721,0.0
1722,0.0
1723,7.69862852
1724,7.69862852
1730,14.451362279299412
1952,7.152532885362275
1953,7.152532885362275
2,1, 7, 1, 0,11, 0.00,60.00,Sunday
7,29.164166666666668
652,21.137314214181609
1717,0.0
1720,0.0
1721,0.0
1722,0.0
1723,7.69862852
1724,7.69862852
1730,13.407883361036257
1952,7.152532885362275
1953,7.152532885362275
2,1, 7, 1, 0,12, 0.00,60.00,Sunday
7,30.0
652,22.54179589933974
1717,0.0
1720,0.0
1721,0.0
1722,0.0
1723,7.69862852
1724,7.69862852
1730,13.504938909347163
1952,7.152532885362275
1953,7.152532885362275
2,1, 7, 1, 0,13, 0.00,60.00,Sunday
7,30.86416666666667
652,23.35485255952045
1717,11039.043969069391
1720,0.5467642243600003
1721,0.22757715621637823
1722,0.3191870681436218
1723,13.584513760000016
1724,18.406874305290456
1730,13.29814124781839
1952,6.710222968415295
1953,11.580127904956206
2,1, 7, 1, 0,14, 0.00,60.00,Sunday
7,29.717500000000006
652,23.591392998425048
1717,0.0
1720,0.0
1721,0.0
1722,0.0
1723,13.584513760000016
1724,13.584513760000016
1730,13.354172253121215
1952,6.699999999999993
1953,6.699999999999993
2,1, 7, 1, 0,15, 0.00,60.00,Sunday
7,28.613333333333335
652,23.52551078821408
1717,13988.677085958188
1720,0.5467642243600003
1721,0.5414577066631489
1722,0.005306517696851375
1723,12.55163434510182
1724,18.660592695777848
1730,13.382207423107643
1952,12.36907181319774
1953,18.545797273405719
2,1, 7, 1, 0,16, 0.00,60.00,Sunday
7,28.0275
652,23.074990975574634
1717,13464.04191363756
1720,0.5467642243600003
1721,0.5467642243600003
1722,0.0
1723,12.19950125309166
1724,18.078878074984958
1730,13.547837562138062
1952,12.125096598784204
1953,18.078878074984958
2,1, 7, 1, 0,17, 0.00,60.00,Sunday
7,25.276666666666665
652,22.417323654581904
1717,13463.964068584684
1720,0.5467642243600003
1721,0.5467642243600003
1722,0.0
1723,11.824089600304746
1724,17.702800178084368
1730,14.035943817526407
1952,11.748312629518667
1953,17.702800178084368
2,1, 7, 1, 0,18, 0.00,60.00,Sunday
7,23.594999999999997
652,21.755498932882685
1717,13460.126040125908
1720,0.5467642243600003
1721,0.5467642243600003
1722,0.0
1723,11.466177250851026
1724,17.342609536248895
1730,14.42670862098007
1952,11.388519659376956
1953,17.342609536248895
2,1, 7, 1, 0,19, 0.00,60.00,Sunday
7,23.604999999999995
652,21.33220281971004
1717,7366.254339047659
1720,0.5467642243600003
1721,0.19425150536126957
1722,0.3525127189987306
1723,14.30850934
1724,17.52709487626131
1730,13.821750543111908
1952,8.311884483665019
1953,11.580668291930478
2,1, 7, 1, 0,20, 0.00,60.00,Sunday
7,21.917500000000005
652,20.888919933456799
1717,9397.546122921292
1720,0.5467642243600003
1721,0.27549429970247166
1722,0.27126992465752849
1723,13.210168660000014
1724,17.315007245155237
1730,12.32679337374451
1952,9.03786045854592
1953,13.189873333818819
2,1, 7, 1, 0,21, 0.00,60.00,Sunday
7,20.304999999999994
652,20.23346565205822
1717,13541.12910805251
1720,0.5467642243600003
1721,0.5467642243600003
1722,0.0
1723,10.638747616554893
1724,16.549138552505377
1730,12.517944869703847
1952,10.56012968776591
1953,16.549138552505377
2,1, 7, 1, 0,22, 0.00,60.00,Sunday
7,20.294999999999996
652,19.593039332777776
1717,12488.058592867515
1720,0.5467642243600003
1721,0.5425800882627451
1722,0.004184136097254977
1723,10.030616167812886
1724,15.480423088346834
1730,11.99246433609002
1952,9.931322844087962
1953,15.436691075239777
2,1, 7, 1, 0,23, 0.00,60.00,Sunday
7,20.0
652,18.96659870620424
1717,10107.904616925758
1720,0.5467642243600003
1721,0.5467642243600003
1722,0.0
1723,10.066893824759483
1724,14.478042566008144
1730,12.21564683435271
1952,10.01977175868037
1953,14.478042566008144
2,1, 7, 1, 0,24, 0.00,60.00,Sunday
7,20.0
652,18.728765868801739
1717,4560.276901995637
1720,0.5467642243600003
1721,0.24084103510054126
1722,0.30592318925945896
1723,12.651371349999986
1724,14.642976716153243
1730,11.999474927441146
1952,10.019819819819825
1953,12.058591922591717
2,2, 7, 2, 0, 1, 0.00,60.00,Monday
7,20.0
652,18.672451263013604
1717,7130.228667668631
1720,0.5467642243600003
1721,0.38122918844389216
1722,0.16553503591610797
1723,11.437814745719022
1724,14.550709121789149
1730,11.999474927441146
1952,10.019819819819825
1953,13.179864536552464
2,2, 7, 2, 0, 2, 0.00,60.00,Monday
7,20.0
652,18.526279241172579
1717,6533.715281737931
1720,0.5467642243600003
1721,0.3609375927127185
1722,0.1858266316472816
1723,11.559576422992438
1724,14.412146714903973
1730,11.999474927441146
1952,10.019819819819825
1953,12.919542096904826
2,2, 7, 2, 0, 3, 0.00,60.00,Monday
7,19.440833333333335
652,18.396954485403716
1717,6178.174352868335
1720,0.5467642243600003
1721,0.3684699917411338
1722,0.17829423261886627
1723,11.667337541154751
1724,14.364764749662135
1730,11.999474927441146
1952,10.287888412389304
1953,13.032469061657599
2,2, 7, 2, 0, 4, 0.00,60.00,Monday
7,19.154166666666666
652,18.271664209313824
1717,5909.494136331026
1720,0.5467642243600003
1721,0.3676490908932863
1722,0.17911513346671363
1723,11.77208372801096
1724,14.352281147914095
1730,11.999474927441146
1952,10.442927392517003
1953,13.070279668080885
2,2, 7, 2, 0, 5, 0.00,60.00,Monday
7,19.399999999999996
652,18.178699261618907
1717,5730.759530790221
1720,0.5467642243600003
1721,0.34544291664023826
1722,0.2013213077197619
1723,11.850070356910323
1724,14.35228486770394
1730,11.999474927441146
1952,10.317157168066668
1953,12.86652758804258
2,2, 7, 2, 0, 6, 0.00,60.00,Monday
7,19.399999999999996
652,18.132775550310915
1717,5649.620965587056
1720,0.5467642243600003
1721,0.3403411010938536
1722,0.20642312326614657
1723,11.889045863987026
1724,14.35586055431801
1730,11.999474927441146
1952,10.31711711711712
1953,12.831088243167019
2,2, 7, 2, 0, 7, 0.00,60.00,Monday
7,19.705
652,18.361689369979776
1717,6009.001454665482
1720,0.5467642243600003
1721,0.35128378675999885
1722,0.19548043760000129
1723,11.70391929661314
1724,14.327511156537835
1730,13.224899739456728
1952,10.17089788480649
1953,12.841643679659568
2,2, 7, 2, 0, 8, 0.00,60.00,Monday
7,21.118333333333337
652,19.441863696277868
1717,7666.831077551237
1720,0.5467642243600003
1721,0.39608053020581066
1722,0.15068369415418923
1723,10.818652193413719
1724,14.165202941352583
1730,11.411565535862243
1952,9.48373069582031
1953,12.877423423754229
2,2, 7, 2, 0, 9, 0.00,60.00,Monday
7,23.62333333333333
652,20.050583341710614
1717,8482.023600969822
1720,0.5467642243600003
1721,0.3573794359944222
1722,0.18938478836557783
1723,10.296528085015466
1724,13.99837253648344
1730,11.358468088604346
1952,8.247549536458142
1953,11.996528919379016
2,2, 7, 2, 0,10, 0.00,60.00,Monday
7,25.55916666666667
652,20.61620636165788
1717,9325.035914592445
1720,0.5467642243600003
1721,0.3398541159207026
1722,0.20691010843929728
1723,9.827217281578838
1724,13.896400293358595
1730,11.358468088604346
1952,7.274498035090321
1953,11.390809251228374
2,2, 7, 2, 0,11, 0.00,60.00,Monday
7,26.65916666666666
652,21.18900383905086
1717,10213.768150213908
1720,0.5467642243600003
1721,0.3505277198357134
1722,0.1962365045242867
1723,9.350941114741229
1724,13.807231684531694
1730,11.358468088604346
1952,6.783661685662574
1953,11.287072968398773
2,2, 7, 2, 0,12, 0.00,60.00,Monday
7,28.06416666666667
652,21.82660039199783
1717,11241.233949842599
1720,0.5467642243600003
1721,0.3854286165612698
1722,0.16133560779873008
1723,8.820219661243643
1724,13.723926179769697
1730,11.358468088604346
1952,6.699999999999993
1953,11.650818880894642
2,2, 7, 2, 0,13, 0.00,60.00,Monday
7,29.459166666666666
652,23.87585913215658
1717,13484.746919885038
1720,0.5467642243600003
1721,0.5332223234111994
1722,0.013541900948800956
1723,7.664132081695522
1724,13.544243859013266
1730,11.358468088604346
1952,7.416749446998902
1953,13.37328440728292
2,2, 7, 2, 0,14, 0.00,60.00,Monday
7,29.440833333333328
652,23.020042095779855
1717,12974.26591570752
1720,0.5467642243600003
1721,0.4753039158440394
1722,0.07146030851596065
1723,7.8540212625478349
1724,13.511899257690344
1730,11.358468088604346
1952,6.911421439936346
1953,12.627310709890857
2,2, 7, 2, 0,15, 0.00,60.00,Monday
7,29.76416666666667
652,22.861332685461787
1717,12742.773466325323
1720,0.5467642243600003
1721,0.4502167629849834
1722,0.09654746137501665
1723,7.948906300189316
1724,13.506013170318682
1730,11.358468088604346
1952,6.699999999999993
1953,12.304205529195235
2,2, 7, 2, 0,16, 0.00,60.00,Monday
7,30.854166666666669
652,22.82907402291996
1717,12646.585396593387
1720,0.5467642243600003
1721,0.4479478314917277
1722,0.09881639286827243
1723,7.974111860095684
1724,13.489317243550654
1730,11.358468088604346
1952,6.699999999999993
1953,12.262304438781089
2,2, 7, 2, 0,17, 0.00,60.00,Monday
7,30.84583333333334
652,22.64787586592086
1717,12302.23552456441
1720,0.5467642243600003
1721,0.43590367187360387
1722,0.11086055248639623
1723,8.123636597107835
1724,13.48893750562194
1730,11.358468088604346
1952,6.699999999999993
1953,12.112402314961998
2,2, 7, 2, 0,18, 0.00,60.00,Monday
7,30.59999999999997
652,23.97075815231242
1717,13490.791921134394
1720,0.5467642243600003
1721,0.5383770455068697
1722,0.008387178853130607
1723,7.4846424550624139
1724,13.367041169938846
1730,11.358468088604346
1952,7.303449163055624
1953,13.263480521601137
2,2, 7, 2, 0,19, 0.00,60.00,Monday
7,29.430833333333337
652,21.579961575998458
1717,10250.096739809616
1720,0.5467642243600003
1721,0.37075552579124418
1722,0.17600869856875585
1723,8.985357412346648
1724,13.456874814664385
1730,30.328191409560625
1952,6.754481944730826
1953,11.276458320998819
2,2, 7, 2, 0,20, 0.00,60.00,Monday
7,26.927500000000003
652,20.11703396436597
1717,8112.28538816479
1720,0.5467642243600003
1721,0.2821690725624385
1722,0.26459515179756168
1723,10.218728314177632
1724,13.759110397013908
1730,32.08439659795262
1952,6.806747806659074
1953,10.394263678484013
2,2, 7, 2, 0,21, 0.00,60.00,Monday
7,24.430833333333334
652,19.421683876999297
1717,7282.065156574447
1720,0.5467642243600003
1721,0.2856174413767411
1722,0.26114678298325907
1723,10.807834401449933
1724,13.986441815627526
1730,31.978592649170154
1952,7.8053358271082369
1953,11.031085074947713
2,2, 7, 2, 0,22, 0.00,60.00,Monday
7,23.045833333333339
652,19.02716394636899
1717,6838.094315963637
1720,0.5467642243600003
1721,0.2950336636416905
1722,0.2517305607183096
1723,11.140655397552854
1724,14.125757135673466
1730,21.2836803823689
1952,8.506349810575627
1953,11.538597876228013
2,2, 7, 2, 0,23, 0.00,60.00,Monday
7,22.494999999999999
652,18.829828779342049
1717,6636.807009239126
1720,0.5467642243600003
1721,0.2968014140157743
1722,0.24996281034422578
1723,11.305830864687293
1724,14.203199775559459
1730,12.497342637645943
1952,8.778611613793512
1953,11.723129082766468
2,2, 7, 2, 0,24, 0.00,60.00,Monday
7,21.640833333333334
652,18.643773928763225
1717,6383.782713654917
1720,0.5467642243600003
1721,0.3069964653414887
1722,0.23976775901851136
1723,11.460892498354955
1724,14.24792462901276
1730,11.991482757712105
1952,9.197750261159757
1953,12.031933044135537
End of Data
 Number of Records Written=        1056
