Program Version,EnergyPlus, Version 9.4.0-998c4b761e, YMD=2021.07.16 00:27
1,5,Environment Title[],Latitude[deg],Longitude[deg],Time Zone[],Elevation[m]
2,8,Day of Simulation[],Month[],Day of Month[],DST Indicator[1=yes 0=no],Hour[],StartMinute[],EndMinute[],DayType
3,5,Cumulative Day of Simulation[],Month[],Day of Month[],DST Indicator[1=yes 0=no],DayType  ! When Daily Report Variables Requested
4,2,Cumulative Days of Simulation[],Month[]  ! When Monthly Report Variables Requested
5,1,Cumulative Days of Simulation[] ! When Run Period Report Variables Requested
6,1,Calendar Year of Simulation[] ! When Annual Report Variables Requested
7,1,Environment,Site Outdoor Air Drybulb Temperature [C] !Hourly
773,1,PERIMETER_BOT_ZN_1,Zone Mean Air Temperature [C] !Hourly
2050,1,PERI1_TOP_LOTEMP,Zone Radiant HVAC Cooling Rate [W] !Hourly
2053,1,PERI1_TOP_LOTEMP,Zone Radiant HVAC Mass Flow Rate [kg/s] !Hourly
2054,1,PERI1_TOP_LOTEMP,Zone Radiant HVAC Injection Mass Flow Rate [kg/s] !Hourly
2055,1,PERI1_TOP_LOTEMP,Zone Radiant HVAC Recirculation Mass Flow Rate [kg/s] !Hourly
2056,1,PERI1_TOP_LOTEMP,Zone Radiant HVAC Inlet Temperature [C] !Hourly
2057,1,PERI1_TOP_LOTEMP,Zone Radiant HVAC Outlet Temperature [C] !Hourly
2063,1,PERI2_TOP_LOTEMP,Zone Radiant HVAC Outlet Temperature [C] !Hourly
2285,1,PERI1_TOP_LOTEMP_CHW_INLET,System Node Temperature [C] !Hourly
2286,1,PERI1_TOP_LOTEMP_CHW_OUTLET,System Node Temperature [C] !Hourly
End of Data Dictionary
1,ATLANTA-HARTSFIELD.JACKSON.INTL.AP_GA_USA ANN HTG 99.6% CONDNS DB,  33.63, -84.43,  -5.00, 308.00
2,1, 1,21, 0, 1, 0.00,60.00,WinterDesignDay
7,-6.300000000000007
773,16.051292496571585
2050,0.0
2053,0.27529600000000006
2054,0.04281524427271306
2055,0.2324807557272869
2056,30.020167906606198
2057,28.900128676809964
2063,40.847851297071887
2285,12.200000000024913
2286,12.200000000024913
2,1, 1,21, 0, 2, 0.00,60.00,WinterDesignDay
7,-6.300000000000007
773,16.04967177119878
2050,0.0
2053,0.31462400000000009
2054,0.048944607540174909
2055,0.2656793924598251
2056,30.04321198410168
2057,28.76338243092908
2063,40.847168903710258
2285,12.200000000024913
2286,12.200000000024913
2,1, 1,21, 0, 3, 0.00,60.00,WinterDesignDay
7,-6.300000000000007
773,16.049873333230456
2050,0.0
2053,0.27529600000000006
2054,0.04288596146176664
2055,0.23241003853823337
2056,30.025030189548578
2057,28.90314676785812
2063,40.8465508238829
2285,12.200000000024913
2286,12.200000000024913
2,1, 1,21, 0, 4, 0.00,60.00,WinterDesignDay
7,-6.300000000000007
773,16.04919402028049
2050,0.0
2053,0.27529600000000006
2054,0.0429186066164899
2055,0.23237739338351014
2056,30.03471333758277
2057,28.91196629144624
2063,40.84598978412034
2285,12.200000000024913
2286,12.200000000024913
2,1, 1,21, 0, 5, 0.00,60.00,WinterDesignDay
7,-6.300000000000007
773,16.049710385112264
2050,0.0
2053,0.27529600000000006
2054,0.04288610733392405
2055,0.23240989266607596
2056,30.03369910982469
2057,28.91178623572365
2063,40.8454791903541
2285,12.200000000024913
2286,12.200000000024913
2,1, 1,21, 0, 6, 0.00,60.00,WinterDesignDay
7,-6.300000000000007
773,16.04868260855043
2050,0.0
2053,0.27529600000000006
2054,0.04292796580833624
2055,0.23236803419166375
2056,30.04184978159666
2057,28.918841024650033
2063,40.84501400033253
2285,12.200000000024913
2286,12.200000000024913
2,1, 1,21, 0, 7, 0.00,60.00,WinterDesignDay
7,-6.300000000000007
773,16.092909520183647
2050,0.0
2053,0.039328
2054,0.006324441658139573
2055,0.033003558341860427
2056,30.006427895746599
2057,29.839975135121234
2063,40.85634497203863
2285,12.200000000024913
2286,12.200000000024913
2,1, 1,21, 0, 8, 0.00,60.00,WinterDesignDay
7,-6.300000000000007
773,16.051222717688373
2050,0.0
2053,0.117984
2054,0.018954354714916419
2055,0.09902964528508358
2056,30.013699665907244
2057,29.51482884321374
2063,40.86430032196453
2285,12.200000000024913
2286,12.200000000024913
2,1, 1,21, 0, 9, 0.00,60.00,WinterDesignDay
7,-6.300000000000007
773,16.058710730917118
2050,0.0
2053,0.078656
2054,0.012647500814692943
2055,0.06600849918530706
2056,30.02716407773212
2057,29.694305536071899
2063,40.86644871810025
2285,12.200000000024913
2286,12.200000000024913
2,1, 1,21, 0,10, 0.00,60.00,WinterDesignDay
7,-6.300000000000007
773,16.053794298568314
2050,0.0
2053,0.117984
2054,0.018946455979570684
2055,0.09903754402042932
2056,30.016459563979099
2057,29.51785500418237
2063,40.8676909476568
2285,12.200000000024913
2286,12.200000000024913
2,1, 1,21, 0,11, 0.00,60.00,WinterDesignDay
7,-6.300000000000007
773,16.04848095348041
2050,0.0
2053,0.117984
2054,0.01897586334784901
2055,0.09900813665215098
2056,30.029779128817667
2057,29.53042249765677
2063,40.86860882252903
2285,12.200000000024913
2286,12.200000000024913
2,1, 1,21, 0,12, 0.00,60.00,WinterDesignDay
7,-6.300000000000007
773,16.053891405079125
2050,0.0
2053,0.078656
2054,0.012621860138721636
2055,0.06603413986127836
2056,30.02005702115956
2057,29.687920085325457
2063,40.86937481796052
2285,12.200000000024913
2286,12.200000000024913
2,1, 1,21, 0,13, 0.00,60.00,WinterDesignDay
7,-6.300000000000007
773,16.05768711632621
2050,0.0
2053,0.117984
2054,0.018961662945857075
2055,0.09902233705414293
2056,30.031940745067538
2057,29.53299328535436
2063,40.870045191041409
2285,12.200000000024913
2286,12.200000000024913
2,1, 1,21, 0,14, 0.00,60.00,WinterDesignDay
7,-6.300000000000007
773,16.052163086002108
2050,0.0
2053,0.117984
2054,0.0189789853574677
2055,0.0990050146425323
2056,30.034168264575336
2057,29.53476782387146
2063,40.8706413378789
2285,12.200000000024913
2286,12.200000000024913
2,1, 1,21, 0,15, 0.00,60.00,WinterDesignDay
7,-6.300000000000007
773,16.051593652644575
2050,0.0
2053,0.117984
2054,0.01895223379216585
2055,0.09903176620783416
2056,30.019674299903895
2057,29.52097877678096
2063,40.87117482308543
2285,12.200000000024913
2286,12.200000000024913
2,1, 1,21, 0,16, 0.00,60.00,WinterDesignDay
7,-6.300000000000007
773,16.058491902703329
2050,0.0
2053,0.078656
2054,0.012614663344695169
2055,0.06604133665530483
2056,30.026627110208158
2057,29.69469779912314
2063,40.871653077850869
2285,12.200000000024913
2286,12.200000000024913
2,1, 1,21, 0,17, 0.00,60.00,WinterDesignDay
7,-6.300000000000007
773,16.05733374468054
2050,0.0
2053,0.117984
2054,0.01894772976245355
2055,0.09903627023754645
2056,30.020981827285345
2057,29.522414806358129
2063,40.87208217586419
2285,12.200000000024913
2286,12.200000000024913
2,1, 1,21, 0,18, 0.00,60.00,WinterDesignDay
7,-6.300000000000007
773,16.052558928347204
2050,0.0
2053,0.117984
2054,0.01894520272293938
2055,0.09903879727706061
2056,30.032089444053687
2057,29.53359461322787
2063,40.8724675670461
2285,12.200000000024913
2286,12.200000000024913
2,1, 1,21, 0,19, 0.00,60.00,WinterDesignDay
7,-6.300000000000007
773,16.04196159068705
2050,0.0
2053,0.4326080000000001
2054,0.06767563810762671
2055,0.3649323618923732
2056,30.107895215558508
2057,28.338724409650017
2063,40.86101525422347
2285,12.200000000024913
2286,12.200000000024913
2,1, 1,21, 0,20, 0.00,60.00,WinterDesignDay
7,-6.300000000000007
773,16.045137506660017
2050,0.0
2053,0.23596800000000005
2054,0.03676693528348031
2055,0.19920106471651972
2056,30.016366876133398
2057,29.054227000464765
2063,40.85297387892726
2285,12.200000000024913
2286,12.200000000024913
2,1, 1,21, 0,21, 0.00,60.00,WinterDesignDay
7,-6.300000000000007
773,16.037761904766336
2050,0.0
2053,0.27529600000000006
2054,0.04291853065179941
2055,0.23237746934820056
2056,30.012948393612917
2057,28.889563802022495
2063,40.85075114040588
2285,12.200000000024913
2286,12.200000000024913
2,1, 1,21, 0,22, 0.00,60.00,WinterDesignDay
7,-6.300000000000007
773,16.051987222297304
2050,0.0
2053,0.31462400000000009
2054,0.048992249383460809
2055,0.2656317506165392
2056,30.054729992981643
2057,28.773819185573488
2063,40.849437315160198
2285,12.200000000024913
2286,12.200000000024913
2,1, 1,21, 0,23, 0.00,60.00,WinterDesignDay
7,-6.300000000000007
773,16.050504589666255
2050,0.0
2053,0.31462400000000009
2054,0.04896775144664008
2055,0.2656562485533599
2056,30.048984913776509
2057,28.768600722302329
2063,40.84844890392778
2285,12.200000000024913
2286,12.200000000024913
2,1, 1,21, 0,24, 0.00,60.00,WinterDesignDay
7,-6.300000000000007
773,16.052974156526689
2050,0.0
2053,0.31462400000000009
2054,0.048822173432300528
2055,0.26580182656769948
2056,30.023275721760773
2057,28.746643651992775
2063,40.84761348819242
2285,12.200000000024913
2286,12.200000000024913
1,ATLANTA-HARTSFIELD.JACKSON.INTL.AP_GA_USA ANN CLG .4% CONDNS DB=>MWB,  33.63, -84.43,  -5.00, 308.00
2,1, 7,21, 0, 1, 0.00,60.00,SummerDesignDay
7,26.32025
773,19.176554788671348
2050,10105.154792740816
2053,2.3997551999999997
2054,0.4944093259113963
2055,1.9053458740886038
2056,11.017745448015404
2057,12.022789104312407
2063,28.954107961167943
2285,6.88344961403727
2286,7.9422008688166019
2,1, 7,21, 0, 2, 0.00,60.00,SummerDesignDay
7,25.84683333333334
773,19.07877981923301
2050,9960.953284910245
2053,2.3997551999999997
2054,0.5042183421363535
2055,1.8955368578636472
2056,11.09983951321936
2057,12.090564411764733
2063,29.001149866358959
2285,7.119586882741276
2286,8.164020642546764
2,1, 7,21, 0, 3, 0.00,60.00,SummerDesignDay
7,25.515125
773,19.00223818358615
2050,9819.70934847258
2053,2.3997551999999997
2054,0.5092364016661976
2055,1.8905187983338024
2056,11.163838661284844
2057,12.140533226964159
2063,29.06683127936561
2285,7.284739011941208
2286,8.315143423471684
2,1, 7,21, 0, 4, 0.00,60.00,SummerDesignDay
7,25.230124999999995
773,18.93777406004797
2050,9686.964646370516
2053,2.3997551999999997
2054,0.5133538172551606
2055,1.8864013827448399
2056,11.217679597129719
2057,12.181185880032667
2063,29.133638613616279
2285,7.425962837837838
2286,8.443179794847394
2,1, 7,21, 0, 5, 0.00,60.00,SummerDesignDay
7,24.993416666666673
773,18.881969740080814
2050,9568.109962100803
2053,2.3997551999999997
2054,0.5164273886549666
2055,1.8833278113450334
2056,11.264317896816026
2057,12.216015110384286
2063,29.199769532483328
2285,7.544027675604874
2286,8.549436280776652
2,1, 7,21, 0, 6, 0.00,60.00,SummerDesignDay
7,24.996583333333335
773,18.843794419639396
2050,9507.675405768847
2053,2.3997551999999997
2054,0.5106509153807365
2055,1.8891042846192634
2056,11.29669500643484
2057,12.24238984450346
2063,29.326143598567837
2285,7.545573915632699
2286,8.54498064341753
2,1, 7,21, 0, 7, 0.00,60.00,SummerDesignDay
7,25.42804166666666
773,19.203685413589438
2050,10786.31298998227
2053,2.3997551999999997
2054,0.5703930559748455
2055,1.829362144025155
2056,11.003100404142709
2057,12.075886221450784
2063,30.14871691054368
2285,7.335703317964299
2286,8.462196508463136
2,1, 7,21, 0, 8, 0.00,60.00,SummerDesignDay
7,26.575958333333334
773,19.42906022423597
2050,11073.960223912785
2053,2.3997551999999997
2054,0.5464034928294458
2055,1.8533517071705539
2056,10.81312357204853
2057,11.914458209748777
2063,30.200199019890368
2285,6.840959799294428
2286,7.995998888073477
2,1, 7,21, 0, 9, 0.00,60.00,SummerDesignDay
7,28.287541666666664
773,19.757522350587583
2050,11951.011550908634
2053,2.3997551999999997
2054,0.5930017789103842
2055,1.8067534210896164
2056,10.540307139419772
2057,11.728773829685198
2063,30.200199019890368
2285,6.699999999999995
2286,7.942166945529837
2,1, 7,21, 0,10, 0.00,60.00,SummerDesignDay
7,29.995958333333328
773,20.151085454004656
2050,12994.166529657923
2053,2.3997551999999997
2054,0.6724378371304992
2055,1.7273173628695014
2056,10.21388881230205
2057,11.505970596785373
2063,30.200199019890368
2285,6.699999999999993
2286,8.045777020548663
2,1, 7,21, 0,11, 0.00,60.00,SummerDesignDay
7,31.514374999999995
773,20.701952542879629
2050,14570.435911826618
2053,2.3997551999999997
2054,0.8011242550574007
2055,1.5986309449425998
2056,9.75676650734376
2057,11.205378094252925
2063,30.200199019890368
2285,6.699999999999993
2286,8.202299172360254
2,1, 7,21, 0,12, 0.00,60.00,SummerDesignDay
7,32.697916666666667
773,21.2911075646739
2050,16062.221669435414
2053,2.3997551999999997
2054,0.9526291656904953
2055,1.447126034309505
2056,9.264974296511154
2057,10.861639894660432
2063,30.200199019890368
2285,6.699999999999993
2286,8.35034436584486
2,1, 7,21, 0,13, 0.00,60.00,SummerDesignDay
7,33.55133333333333
773,21.75025441499721
2050,16971.574557094358
2053,2.3997551999999997
2054,1.0807640971905113
2055,1.318991102809488
2056,8.879850638095152
2057,10.56669468833016
2063,30.200199019890368
2285,6.699999999999993
2286,8.440515914658216
2,1, 7,21, 0,14, 0.00,60.00,SummerDesignDay
7,34.16645833333333
773,22.001048122425617
2050,17194.38333213793
2053,2.3997551999999997
2054,1.1505345350867893
2055,1.2492206649132103
2056,8.667690379098988
2057,10.376559365959136
2063,30.200199019890368
2285,6.699999999999993
2286,8.462537049097762
2,1, 7,21, 0,15, 0.00,60.00,SummerDesignDay
7,34.40000000000004
773,22.01292007611996
2050,16741.683511286825
2053,2.3997551999999997
2054,1.13914447531656
2055,1.2606107246834398
2056,8.654410248934039
2057,10.318279924890867
2063,30.200199019890368
2285,6.699999999999993
2286,8.417537500268251
2,1, 7,21, 0,16, 0.00,60.00,SummerDesignDay
7,34.110250000000018
773,21.797294646457226
2050,15769.367598712348
2053,2.3997551999999997
2054,1.0521040942398379
2055,1.347651105760162
2056,8.83133551955683
2057,10.398663693558659
2063,30.200199019890368
2285,6.699999999999993
2286,8.320999168913089
2,1, 7,21, 0,17, 0.00,60.00,SummerDesignDay
7,33.44366666666667
773,21.456037800642127
2050,14735.461132435526
2053,2.3997551999999997
2054,0.9395757846564318
2055,1.460179415343568
2056,9.115158327634182
2057,10.579864742570374
2063,30.200199019890368
2285,6.699999999999993
2286,8.218382496954354
2,1, 7,21, 0,18, 0.00,60.00,SummerDesignDay
7,32.58708333333333
773,21.11091153450661
2050,13905.400115528168
2053,2.3997551999999997
2054,0.8439635918132338
2055,1.555791608186766
2056,9.402732904995162
2057,10.785063899616177
2063,30.200199019890368
2285,6.699999999999993
2286,8.1360122319558
2,1, 7,21, 0,19, 0.00,60.00,SummerDesignDay
7,31.395624999999997
773,20.749793010609
2050,13036.847828017664
2053,2.3997551999999997
2054,0.7538144213947159
2055,1.6459407786052843
2056,9.703235208458633
2057,10.999353573808609
2063,30.200199019890368
2285,6.699999999999993
2286,8.0498049908216
2,1, 7,21, 0,20, 0.00,60.00,SummerDesignDay
7,30.16379166666667
773,20.4339221226114
2050,12455.223402619602
2053,2.3997551999999997
2054,0.6882483741652021
2055,1.7115068258347984
2056,9.967961278975322
2057,11.206363832422886
2063,30.200199019890368
2285,6.699999999999993
2286,7.992093885608923
2,1, 7,21, 0,21, 0.00,60.00,SummerDesignDay
7,29.215374999999999
773,20.162169752898789
2050,11932.062614005024
2053,2.3997551999999997
2054,0.6358524321115088
2055,1.763902767888491
2056,10.194876527659944
2057,11.381341943346165
2063,30.200199019890368
2285,6.699999999999993
2286,7.94016035939716
2,1, 7,21, 0,22, 0.00,60.00,SummerDesignDay
7,28.360375
773,19.956572171761878
2050,11581.994008215659
2053,2.3997551999999997
2054,0.6003569564299066
2055,1.7993982435700935
2056,10.367056815111568
2057,11.518770003797402
2063,30.200199019890368
2285,6.699999999999993
2286,7.9054107798109369
2,1, 7,21, 0,23, 0.00,60.00,SummerDesignDay
7,27.60195833333334
773,19.494505565313923
2050,10238.756204291894
2053,2.3997551999999997
2054,0.5080058032503205
2055,1.8917493967496802
2056,10.747762811361874
2057,11.766015126426641
2063,28.768238438704498
2285,6.699999999999993
2286,7.771955760934499
2,1, 7,21, 0,24, 0.00,60.00,SummerDesignDay
7,26.936958333333334
773,19.314540109845998
2050,10310.368509466347
2053,2.3997551999999997
2054,0.49559642969023467
2055,1.9041587703097658
2056,10.902749174858413
2057,11.928169334094524
2063,28.650585809932289
2285,6.7027041521533159
2286,7.781830140986062
1,RUNPERIOD 1,  33.63, -84.43,  -5.00, 308.00
2,1, 7, 1, 0, 1, 0.00,60.00,Monday
7,21.118333333333337
773,17.974237522334567
2050,5672.877570545629
2053,0.3999592
2054,0.3540513960180481
2055,0.04590780398195191
2056,10.018934620357382
2057,10.582987173615236
2063,32.84682774728571
2285,9.61108267373362
2286,10.184083884922801
2,1, 7, 1, 0, 2, 0.00,60.00,Monday
7,22.098333333333334
773,17.973007410780097
2050,5625.307136017014
2053,0.3999592
2054,0.31132532225436707
2055,0.08863387774563293
2056,10.0
2057,10.55932165909852
2063,32.84682774728571
2285,8.97316831182584
2286,9.541438628855686
2,1, 7, 1, 0, 3, 0.00,60.00,Monday
7,21.949166666666675
773,17.97262895701449
2050,5208.7308565885909
2053,0.35996328
2054,0.28637698038351169
2055,0.07358629961648836
2056,10.0
2057,10.517901674355079
2063,32.84682774728571
2285,9.045722317988258
2286,9.57167778448153
2,1, 7, 1, 0, 4, 0.00,60.00,Monday
7,21.79833333333333
773,17.97137189261161
2050,5276.875228071376
2053,0.35996328
2054,0.2916421830652782
2055,0.06832109693472173
2056,10.0
2057,10.524677237358909
2063,32.84682774728571
2285,9.115656749902234
2286,9.648387779399336
2,1, 7, 1, 0, 5, 0.00,60.00,Monday
7,21.700000000000025
773,17.969924346003667
2050,5830.6824881439529
2053,0.3999592
2054,0.32809326965944737
2055,0.07186593034055262
2056,10.0
2057,10.579742034361962
2063,32.84682774728571
2285,9.175719234363753
2286,9.764409926657038
2,1, 7, 1, 0, 6, 0.00,60.00,Monday
7,21.954166666666663
773,17.97980921132011
2050,6867.950701211716
2053,0.4799510400000001
2054,0.3815998713457144
2055,0.09835116865428552
2056,10.0
2057,10.682877127937316
2063,29.875774859545208
2285,9.077319659857059
2286,9.770935177311964
2,1, 7, 1, 0, 7, 0.00,60.00,Monday
7,22.200000000000025
773,18.005442513960948
2050,12425.535980940906
2053,1.2798694400000004
2054,0.8928655249927329
2055,0.38700391500726719
2056,10.0
2057,11.235465234520344
2063,14.24593193258221
2285,8.93039155801821
2286,10.1944924979188
2,1, 7, 1, 0, 8, 0.00,60.00,Monday
7,23.31833333333333
773,19.21846407454721
2050,19720.533885563946
2053,2.3597592799999997
2054,2.3597592799999997
2055,0.0
2056,8.464477409535876
2057,10.424283218549679
2063,9.902032978642306
2285,8.393895347393566
2286,10.40644538071184
2,1, 7, 1, 0, 9, 0.00,60.00,Monday
7,25.823333333333335
773,18.437105261346038
2050,17297.58083086962
2053,2.3997551999999997
2054,2.319694644600521
2055,0.08006055539947973
2056,7.295011960290897
2057,9.013352411085748
2063,9.765422755463649
2285,7.177778821195635
2286,8.949757466198426
2,1, 7, 1, 0,10, 0.00,60.00,Monday
7,27.759166666666667
773,18.606930378732199
2050,14982.927098837708
2053,2.3997551999999997
2054,2.069010789607632
2055,0.33074441039236809
2056,7.0
2057,8.488253988020045
2063,9.765422755463649
2285,6.700000005584966
2286,8.241892187812955
2,1, 7, 1, 0,11, 0.00,60.00,Monday
7,29.164166666666668
773,19.087812970349526
2050,14667.357822220625
2053,2.3997551999999997
2054,2.063239811731017
2055,0.3365153882689832
2056,7.0
2057,8.45690849515848
2063,9.765422755463649
2285,6.699999999999993
2286,8.210546689366416
2,1, 7, 1, 0,12, 0.00,60.00,Monday
7,30.0
773,19.7613450611678
2050,15311.676663993687
2053,2.3997551999999997
2054,2.075025315145032
2055,0.3247298848549675
2056,7.0
2057,8.520908678800808
2063,9.765422755463649
2285,6.699999999999993
2286,8.274546873008742
2,1, 7, 1, 0,13, 0.00,60.00,Monday
7,30.86416666666667
773,23.118892663802109
2050,1556.8469334240973
2053,0.9599020800000003
2054,0.07337702141503587
2055,0.8865250585849643
2056,12.0
2057,12.154885259637089
2063,9.765422755463649
2285,6.699999999999993
2286,6.876374344635329
2,1, 7, 1, 0,14, 0.00,60.00,Monday
7,29.717500000000006
773,22.136015040680399
2050,9295.790528909214
2053,2.3997551999999997
2054,0.376605208330465
2055,2.0231499916695347
2056,12.0
2057,12.92480570741495
2063,9.765422755463649
2285,6.699999999999993
2286,7.678528419910569
2,1, 7, 1, 0,15, 0.00,60.00,Monday
7,28.613333333333335
773,21.91055834975862
2050,11264.357018788989
2053,2.3997551999999997
2054,0.4389024665688376
2055,1.9608527334311623
2056,12.0
2057,13.120651506608136
2063,9.765422755463649
2285,6.699999999999993
2286,7.874374219103751
2,1, 7, 1, 0,16, 0.00,60.00,Monday
7,28.0275
773,21.732153369116256
2050,11468.020311077764
2053,2.3997551999999997
2054,0.4450945373387192
2055,1.9546606626612809
2056,12.0
2057,13.140913255677655
2063,9.765422755463649
2285,6.699999999999993
2286,7.894635968173272
2,1, 7, 1, 0,17, 0.00,60.00,Monday
7,25.276666666666665
773,21.158595419308307
2050,11031.242328952696
2053,2.3997551999999997
2054,0.48546792956616788
2055,1.9142872704338332
2056,12.0
2057,13.097459740940393
2063,9.765422755463649
2285,7.3823564174495959
2286,8.533538870885604
2,1, 7, 1, 0,18, 0.00,60.00,Monday
7,23.594999999999997
773,20.80778440102119
2050,17324.507805345693
2053,2.3997551999999997
2054,1.2145726069510583
2055,1.1851825930489415
2056,10.0
2057,11.722567713095958
2063,9.765422755463649
2285,8.233382334380554
2286,10.00964199506447
2,1, 7, 1, 0,19, 0.00,60.00,Monday
7,23.604999999999995
773,19.024458631211457
2050,12317.266503261893
2053,2.3997551999999997
2054,1.027560945578424
2055,1.372194254421576
2056,10.0
2057,11.224700050963087
2063,28.0823598327673
2285,8.2384173912346
2286,9.516809389785648
2,1, 7, 1, 0,20, 0.00,60.00,Monday
7,21.917500000000005
773,18.06137553523949
2050,5346.550244721973
2053,1.0398939200000004
2054,0.5043216728293622
2055,0.5355722471706377
2056,10.0
2057,10.531604991696306
2063,30.352706248792644
2285,8.906128663318829
2286,9.461000165636582
2,1, 7, 1, 0,21, 0.00,60.00,Monday
7,20.304999999999994
773,17.984560205820804
2050,4411.2754509582869
2053,0.3999592
2054,0.3848141562980816
2055,0.01514504370191847
2056,10.0
2057,10.438611056127602
2063,30.015086175057289
2285,9.84540019031664
2286,10.292959904375568
2,1, 7, 1, 0,22, 0.00,60.00,Monday
7,20.294999999999996
773,17.97122361534618
2050,5486.389955072311
2053,0.4399551200000001
2054,0.4284361624955609
2055,0.011518957504439114
2056,10.001300584410633
2057,10.54681090546659
2063,32.7984227064695
2285,9.843587058494454
2286,10.398940903274872
2,1, 7, 1, 0,23, 0.00,60.00,Monday
7,20.0
773,17.969713102802854
2050,5060.76576083782
2053,0.3999592
2054,0.3999592
2055,0.0
2056,10.071447247861049
2057,10.574647257060139
2063,32.840046720328029
2285,10.018539210442662
2286,10.530687877573078
2,1, 7, 1, 0,24, 0.00,60.00,Monday
7,20.0
773,17.969341641444897
2050,6224.969536664832
2053,0.4799510400000001
2054,0.4799510400000001
2055,0.0
2056,10.073511733997153
2057,10.692470570712097
2063,32.840046720328029
2285,10.019819796784022
2286,10.649517023016556
2,2, 7, 2, 0, 1, 0.00,60.00,Tuesday
7,20.0
773,17.989216853190393
2050,4669.1001226156599
2053,0.5999388000000001
2054,0.29879395475104578
2055,0.3011448452489543
2056,11.642821538590683
2057,12.107333286010967
2063,32.840046720328029
2285,10.019819819819169
2286,10.497762224793341
2,2, 7, 2, 0, 2, 0.00,60.00,Tuesday
7,20.0
773,17.990743295231956
2050,5414.172084111919
2053,0.6799306400000001
2054,0.3423490509440662
2055,0.33758158905593385
2056,11.996085411300643
2057,12.534721677222099
2063,32.840046720328029
2285,10.019819819819825
2286,10.573677498568637
2,2, 7, 2, 0, 3, 0.00,60.00,Tuesday
7,19.440833333333335
773,17.985925724215535
2050,4329.698952465048
2053,0.5199469600000001
2054,0.2846657528521965
2055,0.23528120714780349
2056,11.996179516094952
2057,12.426925572120119
2063,32.840046720328029
2285,10.24527332005019
2286,10.687659281984912
2,2, 7, 2, 0, 4, 0.00,60.00,Tuesday
7,19.154166666666666
773,17.98494989197102
2050,5324.18061006239
2053,0.5999388000000001
2054,0.35477346064494338
2055,0.24516533935505664
2056,11.99791242484393
2057,12.527596121715435
2063,32.840046720328029
2285,10.458654743809208
2286,11.001769108058728
2,2, 7, 2, 0, 5, 0.00,60.00,Tuesday
7,19.399999999999996
773,17.983444656442779
2050,4428.849624212364
2053,0.4799510400000001
2054,0.27870839137803146
2055,0.20124264862196857
2056,11.996691036671026
2057,12.43730122118825
2063,32.840046720328029
2285,10.318119520293525
2286,10.76947423304235
2,2, 7, 2, 0, 6, 0.00,60.00,Tuesday
7,19.399999999999996
773,17.987567167842625
2050,5526.533853742202
2053,0.5999388000000001
2054,0.34811359068699768
2055,0.25182520931300236
2056,11.995238619507046
2057,12.54505343585605
2063,32.840046720328029
2285,10.317117120801809
2286,10.880362597574852
2,2, 7, 2, 0, 7, 0.00,60.00,Tuesday
7,19.705
773,18.005402601000204
2050,9643.447045413463
2053,1.5198449600000006
2054,0.7119456020775214
2055,0.8078993579224787
2056,11.992572525188134
2057,12.951962438472059
2063,29.8255351400426
2285,10.176481056771527
2286,11.169895252131309
2,2, 7, 2, 0, 8, 0.00,60.00,Tuesday
7,21.118333333333337
773,18.924734504372834
2050,12560.525893598448
2053,2.3997551999999997
2054,1.0385547857030726
2055,1.3612004142969275
2056,11.247993430157914
2057,12.497329844588416
2063,11.321844364660742
2285,9.48375305052941
2286,10.786800605748193
2,2, 7, 2, 0, 9, 0.00,60.00,Tuesday
7,23.62333333333333
773,19.194502972149249
2050,10566.331051564568
2053,2.3997551999999997
2054,0.7011522250440195
2055,1.69860297495598
2056,11.00558783168068
2057,12.056494506242285
2063,11.257857854877333
2285,8.247549536458142
2286,9.352163622502271
2,2, 7, 2, 0,10, 0.00,60.00,Tuesday
7,25.55916666666667
773,19.64342344667711
2050,11623.868233000858
2053,2.3997551999999997
2054,0.6424849619325296
2055,1.7572702380674704
2056,10.636558729282929
2057,11.792524475635388
2063,11.257857854877333
2285,7.2744980350903198
2286,8.48416551697368
2,2, 7, 2, 0,11, 0.00,60.00,Tuesday
7,26.65916666666666
773,20.12480705363204
2050,12786.990553493706
2053,2.3997551999999997
2054,0.6731650999512386
2055,1.7265901000487616
2056,10.236503563631683
2057,11.50799282034575
2063,11.257857854877333
2285,6.783661685662574
2286,8.108846526169076
2,2, 7, 2, 0,12, 0.00,60.00,Tuesday
7,28.06416666666667
773,20.67313938334073
2050,14150.990693621361
2053,2.3997551999999997
2054,0.7819897443698676
2055,1.6177654556301325
2056,9.780161897194694
2057,11.187083124342504
2063,11.257857854877333
2285,6.699999999999993
2286,8.160609230875535
2,2, 7, 2, 0,13, 0.00,60.00,Tuesday
7,29.459166666666666
773,22.774760015593594
2050,20528.17022279573
2053,2.3997551999999997
2054,1.4944277103958302
2055,0.90532748960417
2056,8.051420735716667
2057,10.091194226314393
2063,11.257857854877333
2285,6.699999999999993
2286,8.793430512489318
2,2, 7, 2, 0,14, 0.00,60.00,Tuesday
7,29.440833333333328
773,21.573061625293648
2050,13331.164364890417
2053,2.3997551999999997
2054,0.9190235851665667
2055,1.480731614833433
2056,8.99910804720484
2057,10.324167088610956
2063,11.257857854877333
2285,6.699999999999993
2286,8.078733043742938
2,2, 7, 2, 0,15, 0.00,60.00,Tuesday
7,29.76416666666667
773,21.450237232334226
2050,14552.474351495901
2053,2.3997551999999997
2054,0.92983273732401
2055,1.4699224626759906
2056,9.125099735253646
2057,10.571622609250055
2063,11.257857854877333
2285,6.699999999999993
2286,8.200199134186886
2,2, 7, 2, 0,16, 0.00,60.00,Tuesday
7,30.854166666666669
773,21.423687155708106
2050,14640.079017598538
2053,2.3997551999999997
2054,0.9283926381739726
2055,1.4713625618260274
2056,9.145318520463178
2057,10.600559080987848
2063,11.257857854877333
2285,6.699999999999993
2286,8.208917183191439
2,2, 7, 2, 0,17, 0.00,60.00,Tuesday
7,30.84583333333334
773,21.252392157313559
2050,14054.836825632166
2053,2.3997551999999997
2054,0.8740737802918567
2055,1.525681419708143
2056,9.286717736366909
2057,10.683850381264645
2063,11.257857854877333
2285,6.699999999999993
2286,8.150811802293509
2,2, 7, 2, 0,18, 0.00,60.00,Tuesday
7,30.59999999999997
773,22.76184556276205
2050,19092.589505319538
2053,2.3997551999999997
2054,1.4454836734130936
2055,0.9542715265869066
2056,8.05424550164701
2057,9.951372685001554
2063,11.571067026860261
2285,6.699999999999993
2286,8.650784255511353
2,2, 7, 2, 0,19, 0.00,60.00,Tuesday
7,29.430833333333337
773,20.17921859418829
2050,7699.778648486156
2053,2.3997551999999997
2054,0.480736086518332
2055,1.9190191134816679
2056,10.141130876444662
2057,10.906717402220372
2063,31.11889684718745
2285,6.699999999999993
2286,7.519280230701704
2,2, 7, 2, 0,20, 0.00,60.00,Tuesday
7,26.927500000000003
773,18.929796317480656
2050,7145.626942158448
2053,2.3997551999999997
2054,0.35910534655403505
2055,2.040649853445965
2056,11.210524051046879
2057,11.921256828112707
2063,32.242363379074408
2285,6.806747806659074
2286,7.571191147966808
2,2, 7, 2, 0,21, 0.00,60.00,Tuesday
7,24.430833333333334
773,18.380587799215115
2050,7342.156453893135
2053,2.3997551999999997
2054,0.40977965449561568
2055,1.9899755455043844
2056,11.676805947017268
2057,12.407183632329554
2063,32.126709660082187
2285,7.8053358271082369
2286,8.589431250815489
2,2, 7, 2, 0,22, 0.00,60.00,Tuesday
7,23.045833333333339
773,18.065133590395655
2050,7241.80903960872
2053,2.3997551999999997
2054,0.446922838008564
2055,1.952832361991436
2056,11.943196112553295
2057,12.66364672521383
2063,21.60147153585913
2285,8.506349810575625
2286,9.280522261196186
2,2, 7, 2, 0,23, 0.00,60.00,Tuesday
7,22.494999999999999
773,18.000830972664674
2050,5476.703535739263
2053,1.3198653600000006
2054,0.32657197611601759
2055,0.9932933838839824
2056,11.996639243200093
2057,12.541496622129522
2063,11.966747046155897
2285,8.772014451294277
2286,9.346419283250518
2,2, 7, 2, 0,24, 0.00,60.00,Tuesday
7,21.640833333333334
773,17.99710915132175
2050,4865.730797281285
2053,0.8799102400000003
2054,0.29073046629228457
2055,0.5891797737077156
2056,11.995223965409045
2057,12.479297611266145
2063,11.966747046155897
2285,9.171999811654109
2286,9.67577174843629
End of Data
 Number of Records Written=        1056
