Program Version,EnergyPlus, Version 9.5.0-de239b2e5f, YMD=2021.07.23 01:18
1,5,Environment Title[],Latitude[deg],Longitude[deg],Time Zone[],Elevation[m]
2,8,Day of Simulation[],Month[],Day of Month[],DST Indicator[1=yes 0=no],Hour[],StartMinute[],EndMinute[],DayType
3,5,Cumulative Day of Simulation[],Month[],Day of Month[],DST Indicator[1=yes 0=no],DayType  ! When Daily Meters Requested
4,2,Cumulative Days of Simulation[],Month[]  ! When Monthly Meters Requested
5,1,Cumulative Days of Simulation[] ! When Run Period Meters Requested
6,1,Calendar Year of Simulation[] ! When Annual Meters Requested
9,1,Electricity:Facility [J] !Hourly
1508,1,ElectricityNet:Facility [J] !Hourly
45,1,InteriorLights:Electricity [J] !Hourly
432,1,InteriorEquipment:Electricity [J] !Hourly
End of Data Dictionary
1,ATLANTA-HARTSFIELD.JACKSON.INTL.AP_GA_USA ANN HTG 99.6% CONDNS DB,  33.63, -84.43,  -5.00, 308.00
2,1, 1,21, 0, 1, 0.00,60.00,WinterDesignDay
9,114085554.49409275
45,0.0
432,0.0
1508,114085554.49409275
2,1, 1,21, 0, 2, 0.00,60.00,WinterDesignDay
9,114078354.49409275
45,0.0
432,0.0
1508,114078354.49409275
2,1, 1,21, 0, 3, 0.00,60.00,WinterDesignDay
9,114092754.49409275
45,0.0
432,0.0
1508,114092754.49409275
2,1, 1,21, 0, 4, 0.00,60.00,WinterDesignDay
9,114078354.49409275
45,0.0
432,0.0
1508,114078354.49409275
2,1, 1,21, 0, 5, 0.00,60.00,WinterDesignDay
9,114085554.49409275
45,0.0
432,0.0
1508,114085554.49409275
2,1, 1,21, 0, 6, 0.00,60.00,WinterDesignDay
9,114092754.49409275
45,0.0
432,0.0
1508,114092754.49409275
2,1, 1,21, 0, 7, 0.00,60.00,WinterDesignDay
9,124345014.49409275
45,0.0
432,0.0
1508,124345014.49409272
2,1, 1,21, 0, 8, 0.00,60.00,WinterDesignDay
9,119653764.49409275
45,0.0
432,0.0
1508,119653764.49409272
2,1, 1,21, 0, 9, 0.00,60.00,WinterDesignDay
9,105529614.49409274
45,0.0
432,0.0
1508,105529614.49409274
2,1, 1,21, 0,10, 0.00,60.00,WinterDesignDay
9,105529614.49409274
45,0.0
432,0.0
1508,105529614.49409274
2,1, 1,21, 0,11, 0.00,60.00,WinterDesignDay
9,105529614.49409274
45,0.0
432,0.0
1508,105529614.49409274
2,1, 1,21, 0,12, 0.00,60.00,WinterDesignDay
9,105529614.49409274
45,0.0
432,0.0
1508,105529614.49409274
2,1, 1,21, 0,13, 0.00,60.00,WinterDesignDay
9,105536814.49409274
45,0.0
432,0.0
1508,105536814.49409274
2,1, 1,21, 0,14, 0.00,60.00,WinterDesignDay
9,105536814.49409274
45,0.0
432,0.0
1508,105536814.49409274
2,1, 1,21, 0,15, 0.00,60.00,WinterDesignDay
9,105529614.49409274
45,0.0
432,0.0
1508,105529614.49409274
2,1, 1,21, 0,16, 0.00,60.00,WinterDesignDay
9,105529614.49409274
45,0.0
432,0.0
1508,105529614.49409274
2,1, 1,21, 0,17, 0.00,60.00,WinterDesignDay
9,105529614.49409274
45,0.0
432,0.0
1508,105529614.49409274
2,1, 1,21, 0,18, 0.00,60.00,WinterDesignDay
9,108043134.49409274
45,0.0
432,0.0
1508,108043134.49409274
2,1, 1,21, 0,19, 0.00,60.00,WinterDesignDay
9,124510614.49409275
45,0.0
432,0.0
1508,124510614.49409272
2,1, 1,21, 0,20, 0.00,60.00,WinterDesignDay
9,116630934.49409275
45,0.0
432,0.0
1508,116630934.49409275
2,1, 1,21, 0,21, 0.00,60.00,WinterDesignDay
9,116638134.49409275
45,0.0
432,0.0
1508,116638134.49409275
2,1, 1,21, 0,22, 0.00,60.00,WinterDesignDay
9,116623734.49409275
45,0.0
432,0.0
1508,116623734.49409275
2,1, 1,21, 0,23, 0.00,60.00,WinterDesignDay
9,116638134.49409275
45,0.0
432,0.0
1508,116638134.49409275
2,1, 1,21, 0,24, 0.00,60.00,WinterDesignDay
9,116638134.49409275
45,0.0
432,0.0
1508,116638134.49409275
1,ATLANTA-HARTSFIELD.JACKSON.INTL.AP_GA_USA ANN CLG .4% CONDNS DB=>MWB,  33.63, -84.43,  -5.00, 308.00
2,1, 7,21, 0, 1, 0.00,60.00,SummerDesignDay
9,518569701.7582477
45,152517470.7542746
432,224813060.55296675
1508,518569701.7582477
2,1, 7,21, 0, 2, 0.00,60.00,SummerDesignDay
9,518617701.7582477
45,152517470.7542746
432,224813060.55296675
1508,518617701.7582477
2,1, 7,21, 0, 3, 0.00,60.00,SummerDesignDay
9,518689701.7582477
45,152517470.7542746
432,224813060.55296675
1508,518689701.7582477
2,1, 7,21, 0, 4, 0.00,60.00,SummerDesignDay
9,518779701.7582477
45,152517470.7542746
432,224813060.55296675
1508,518779701.7582477
2,1, 7,21, 0, 5, 0.00,60.00,SummerDesignDay
9,518869701.7582477
45,152517470.7542746
432,224813060.55296675
1508,518869701.7582477
2,1, 7,21, 0, 6, 0.00,60.00,SummerDesignDay
9,516629297.51664856
45,152399851.51267544
432,224813060.55296675
1508,516629297.51664856
2,1, 7,21, 0, 7, 0.00,60.00,SummerDesignDay
9,486106260.6839891
45,129457169.68001552
432,224813060.55296675
1508,486106260.6839891
2,1, 7,21, 0, 8, 0.00,60.00,SummerDesignDay
9,476989399.0868622
45,120340308.08288898
432,224813060.55296675
1508,476989399.0868622
2,1, 7,21, 0, 9, 0.00,60.00,SummerDesignDay
9,469215409.09644469
45,119991185.40467149
432,224813060.55296675
1508,469215409.09644469
2,1, 7,21, 0,10, 0.00,60.00,SummerDesignDay
9,459868736.45741429
45,119991185.40467149
432,224813060.55296675
1508,459868736.45741429
2,1, 7,21, 0,11, 0.00,60.00,SummerDesignDay
9,459868736.45741429
45,119991185.40467149
432,224813060.55296675
1508,459868736.45741429
2,1, 7,21, 0,12, 0.00,60.00,SummerDesignDay
9,459868736.45741429
45,119991185.40467149
432,224813060.55296675
1508,459868736.45741429
2,1, 7,21, 0,13, 0.00,60.00,SummerDesignDay
9,459868736.45741429
45,119991185.40467149
432,224813060.55296675
1508,459868736.45741429
2,1, 7,21, 0,14, 0.00,60.00,SummerDesignDay
9,459868736.45741429
45,119991185.40467149
432,224813060.55296675
1508,459868736.45741429
2,1, 7,21, 0,15, 0.00,60.00,SummerDesignDay
9,459892736.45741429
45,119991185.40467149
432,224813060.55296675
1508,459892736.45741429
2,1, 7,21, 0,16, 0.00,60.00,SummerDesignDay
9,459868736.45741429
45,119991185.40467149
432,224813060.55296675
1508,459868736.45741429
2,1, 7,21, 0,17, 0.00,60.00,SummerDesignDay
9,459892736.45741429
45,119991185.40467149
432,224813060.55296675
1508,459892736.45741429
2,1, 7,21, 0,18, 0.00,60.00,SummerDesignDay
9,459902992.2258166
45,120025441.17307365
432,224813060.55296675
1508,459902992.2258166
2,1, 7,21, 0,19, 0.00,60.00,SummerDesignDay
9,462145697.58519998
45,122268146.53245703
432,224813060.55296675
1508,462145697.5852
2,1, 7,21, 0,20, 0.00,60.00,SummerDesignDay
9,489987632.9410856
45,146615183.8883431
432,224813060.55296675
1508,489987632.9410856
2,1, 7,21, 0,21, 0.00,60.00,SummerDesignDay
9,503431541.807017
45,152517470.7542746
432,224813060.55296675
1508,503431541.807017
2,1, 7,21, 0,22, 0.00,60.00,SummerDesignDay
9,503431541.807017
45,152517470.7542746
432,224813060.55296675
1508,503431541.807017
2,1, 7,21, 0,23, 0.00,60.00,SummerDesignDay
9,519817356.0923939
45,152517470.7542746
432,224813060.55296675
1508,519817356.0923938
2,1, 7,21, 0,24, 0.00,60.00,SummerDesignDay
9,520839081.7582477
45,152517470.7542746
432,224813060.55296675
1508,520839081.7582477
1,RUNPERIOD 1,  33.63, -84.43,  -5.00, 308.00
2,1, 7, 1, 0, 1, 0.00,60.00,Sunday
9,61452249.42877105
45,7625873.53771374
432,33399901.50135806
1508,61452249.42877104
2,1, 7, 1, 0, 2, 0.00,60.00,Sunday
9,63452321.17268838
45,7625873.53771374
432,33399901.50135806
1508,63452321.17268838
2,1, 7, 1, 0, 3, 0.00,60.00,Sunday
9,62952303.23670903
45,7625873.53771374
432,33399901.50135806
1508,62952303.23670903
2,1, 7, 1, 0, 4, 0.00,60.00,Sunday
9,61952267.36475035
45,7625873.53771374
432,33399901.50135806
1508,61952267.36475035
2,1, 7, 1, 0, 5, 0.00,60.00,Sunday
9,63517417.24649323
45,7625873.53771374
432,33399901.50135806
1508,63517417.24649323
2,1, 7, 1, 0, 6, 0.00,60.00,Sunday
9,64073945.66932932
45,7413329.546520042
432,33399901.50135806
1508,64073945.66932932
2,1, 7, 1, 0, 7, 0.00,60.00,Sunday
9,79536966.55497884
45,5390491.487484721
432,41385398.908734139
1508,79536966.55497884
2,1, 7, 1, 0, 8, 0.00,60.00,Sunday
9,79477146.59276873
45,5204671.525274598
432,41385398.908734139
1508,79477146.59276873
2,1, 7, 1, 0, 9, 0.00,60.00,Sunday
9,81082988.41308771
45,5173573.547439724
432,41385398.908734139
1508,81082988.41308771
2,1, 7, 1, 0,10, 0.00,60.00,Sunday
9,81442988.41308771
45,5173573.547439724
432,41385398.908734139
1508,81442988.41308771
2,1, 7, 1, 0,11, 0.00,60.00,Sunday
9,80580048.6149338
45,5173573.547439724
432,41385398.908734139
1508,80580048.6149338
2,1, 7, 1, 0,12, 0.00,60.00,Sunday
9,80670048.6149338
45,5173573.547439724
432,41385398.908734139
1508,80670048.6149338
2,1, 7, 1, 0,13, 0.00,60.00,Sunday
9,80610048.6149338
45,5173573.547439724
432,41385398.908734139
1508,80610048.6149338
2,1, 7, 1, 0,14, 0.00,60.00,Sunday
9,80544048.6149338
45,5173573.547439724
432,41385398.908734139
1508,80544048.6149338
2,1, 7, 1, 0,15, 0.00,60.00,Sunday
9,80664048.6149338
45,5173573.547439724
432,41385398.908734139
1508,80664048.6149338
2,1, 7, 1, 0,16, 0.00,60.00,Sunday
9,80490585.69904365
45,5174110.6315495599
432,41385398.908734139
1508,80490585.69904365
2,1, 7, 1, 0,17, 0.00,60.00,Sunday
9,80355558.39430762
45,5231083.3268135399
432,41385398.908734139
1508,80355558.39430762
2,1, 7, 1, 0,18, 0.00,60.00,Sunday
9,79933033.63182187
45,5282558.564327782
432,41385398.908734139
1508,79933033.63182187
2,1, 7, 1, 0,19, 0.00,60.00,Sunday
9,71598393.89520212
45,6361416.235084032
432,33399901.50135806
1508,71598393.8952021
2,1, 7, 1, 0,20, 0.00,60.00,Sunday
9,69625680.05770563
45,7515599.885422203
432,33399901.50135806
1508,69625680.05770563
2,1, 7, 1, 0,21, 0.00,60.00,Sunday
9,65122761.3745345
45,7625873.53771374
432,33399901.50135806
1508,65122761.3745345
2,1, 7, 1, 0,22, 0.00,60.00,Sunday
9,65640779.31051388
45,7625873.53771374
432,33399901.50135806
1508,65640779.31051388
2,1, 7, 1, 0,23, 0.00,60.00,Sunday
9,68062868.99041052
45,7625873.53771374
432,33399901.50135806
1508,68062868.99041052
2,1, 7, 1, 0,24, 0.00,60.00,Sunday
9,62997593.55681235
45,7625873.53771374
432,33399901.50135806
1508,62997593.55681235
2,2, 7, 2, 0, 1, 0.00,60.00,Monday
9,88964123.88056241
45,7625873.53771374
432,44533202.00181081
1508,88964123.8805624
2,2, 7, 2, 0, 2, 0.00,60.00,Monday
9,72585549.92922366
45,7625873.53771374
432,44533202.00181081
1508,72585549.92922366
2,2, 7, 2, 0, 3, 0.00,60.00,Monday
9,76085675.48107906
45,7625873.53771374
432,44533202.00181081
1508,76085675.48107906
2,2, 7, 2, 0, 4, 0.00,60.00,Monday
9,70627478.1853064
45,7625873.53771374
432,44533202.00181081
1508,70627478.1853064
2,2, 7, 2, 0, 5, 0.00,60.00,Monday
9,72145531.99324437
45,7625873.53771374
432,44533202.00181081
1508,72145531.99324437
2,2, 7, 2, 0, 6, 0.00,60.00,Monday
9,84673735.4426068
45,15251747.07542748
432,44533202.00181081
1508,84673735.4426068
2,2, 7, 2, 0, 7, 0.00,60.00,Monday
9,99356237.05442983
45,12081689.219203884
432,55180531.87831209
1508,99356237.05442983
2,2, 7, 2, 0, 8, 0.00,60.00,Monday
9,256757122.64539019
45,31130404.104440474
432,95796493.41677362
1508,256757122.64539019
2,2, 7, 2, 0, 9, 0.00,60.00,Monday
9,429032018.0640903
45,93124323.85391505
432,204227663.7591696
1508,429032018.0640903
2,2, 7, 2, 0,10, 0.00,60.00,Monday
9,398908160.92123386
45,93124323.85391505
432,174055806.61631225
1508,398908160.92123386
2,2, 7, 2, 0,11, 0.00,60.00,Monday
9,391945424.65749737
45,93124323.85391505
432,167093070.3525762
1508,391945424.6574972
2,2, 7, 2, 0,12, 0.00,60.00,Monday
9,398794160.92123386
45,93124323.85391505
432,174055806.61631225
1508,398794160.92123386
2,2, 7, 2, 0,13, 0.00,60.00,Monday
9,400793514.61587318
45,93124323.85391505
432,177667514.30607493
1508,400793514.61587318
2,2, 7, 2, 0,14, 0.00,60.00,Monday
9,388046901.18978378
45,93124323.85391505
432,179858086.83609239
1508,388046901.18978378
2,2, 7, 2, 0,15, 0.00,60.00,Monday
9,375281884.70626738
45,93124323.85391505
432,167093070.3525762
1508,375281884.70626738
2,2, 7, 2, 0,16, 0.00,60.00,Monday
9,375281884.70626738
45,93124323.85391505
432,167093070.3525762
1508,375281884.70626738
2,2, 7, 2, 0,17, 0.00,60.00,Monday
9,385725989.1018714
45,93124323.85391505
432,177537174.74818046
1508,385725989.1018714
2,2, 7, 2, 0,18, 0.00,60.00,Monday
9,309639672.3110607
45,51749162.5771431
432,140923939.57316477
1508,309639672.3110607
2,2, 7, 2, 0,19, 0.00,60.00,Monday
9,232388649.64930154
45,31518614.792510638
432,69106004.40578471
1508,232388649.64930154
2,2, 7, 2, 0,20, 0.00,60.00,Monday
9,231936162.16749893
45,37382529.66235644
432,59822356.054136309
1508,231936162.16749893
2,2, 7, 2, 0,21, 0.00,60.00,Monday
9,230126850.4008754
45,26303943.895732464
432,59822356.054136309
1508,230126850.4008754
2,2, 7, 2, 0,22, 0.00,60.00,Monday
9,115008396.61320506
45,26303943.895732464
432,55180531.87831209
1508,115008396.61320506
2,2, 7, 2, 0,23, 0.00,60.00,Monday
9,105574860.42329882
45,13151971.947866232
432,55180531.87831209
1508,105574860.42329882
2,2, 7, 2, 0,24, 0.00,60.00,Monday
9,91276605.40967576
45,6575985.973933116
432,55180531.87831209
1508,91276605.40967576
End of Data
 Number of Records Written=         384
