Program Version,EnergyPlus, Version 9.5.0-de239b2e5f, YMD=2021.07.16 01:41
1,5,Environment Title[],Latitude[deg],Longitude[deg],Time Zone[],Elevation[m]
2,8,Day of Simulation[],Month[],Day of Month[],DST Indicator[1=yes 0=no],Hour[],StartMinute[],EndMinute[],DayType
3,5,Cumulative Day of Simulation[],Month[],Day of Month[],DST Indicator[1=yes 0=no],DayType  ! When Daily Report Variables Requested
4,2,Cumulative Days of Simulation[],Month[]  ! When Monthly Report Variables Requested
5,1,Cumulative Days of Simulation[] ! When Run Period Report Variables Requested
6,1,Calendar Year of Simulation[] ! When Annual Report Variables Requested
7,1,Environment,Site Outdoor Air Drybulb Temperature [C] !Hourly
652,1,PERIMETER_BOT_ZN_1,Zone Mean Air Temperature [C] !Hourly
1717,1,PERI1_TOP_LOTEMP,Zone Radiant HVAC Cooling Rate [W] !Hourly
1720,1,PERI1_TOP_LOTEMP,Zone Radiant HVAC Mass Flow Rate [kg/s] !Hourly
1721,1,PERI1_TOP_LOTEMP,Zone Radiant HVAC Injection Mass Flow Rate [kg/s] !Hourly
1722,1,PERI1_TOP_LOTEMP,Zone Radiant HVAC Recirculation Mass Flow Rate [kg/s] !Hourly
1723,1,PERI1_TOP_LOTEMP,Zone Radiant HVAC Inlet Temperature [C] !Hourly
1724,1,PERI1_TOP_LOTEMP,Zone Radiant HVAC Outlet Temperature [C] !Hourly
1730,1,PERI2_TOP_LOTEMP,Zone Radiant HVAC Outlet Temperature [C] !Hourly
1952,1,PERI1_TOP_LOTEMP_CHW_INLET,System Node Temperature [C] !Hourly
1953,1,PERI1_TOP_LOTEMP_CHW_OUTLET,System Node Temperature [C] !Hourly
End of Data Dictionary
1,ATLANTA-HARTSFIELD.JACKSON.INTL.AP_GA_USA ANN HTG 99.6% CONDNS DB,  33.63, -84.43,  -5.00, 308.00
2,1, 1,21, 0, 1, 0.00,60.00,WinterDesignDay
7,-6.300000000000007
652,16.051292496802814
1717,0.0
1720,0.27529600000000006
1721,0.04281524426242808
1722,0.23248075573757194
1723,30.020167904309646
1724,28.900128674779169
1730,40.847851297250077
1952,12.200000000024913
1953,12.200000000024913
2,1, 1,21, 0, 2, 0.00,60.00,WinterDesignDay
7,-6.300000000000007
652,16.04967177145685
1717,0.0
1720,0.31462400000000009
1721,0.048944607527027967
1722,0.265679392472972
1723,30.043211981427523
1724,28.76338242859434
1730,40.847168903872098
1952,12.200000000024913
1953,12.200000000024913
2,1, 1,21, 0, 3, 0.00,60.00,WinterDesignDay
7,-6.300000000000007
652,16.049873333433469
1717,0.0
1720,0.27529600000000006
1721,0.042885961452911899
1722,0.2324100385470881
1723,30.025030187349829
1724,28.903146765888093
1730,40.84655082405357
1952,12.200000000024913
1953,12.200000000024913
2,1, 1,21, 0, 4, 0.00,60.00,WinterDesignDay
7,-6.300000000000007
652,16.049194020368377
1717,0.0
1720,0.27529600000000006
1721,0.04291860661278943
1722,0.23237739338721054
1723,30.034713336519336
1724,28.911966290478355
1730,40.845989784274717
1952,12.200000000024913
1953,12.200000000024913
2,1, 1,21, 0, 5, 0.00,60.00,WinterDesignDay
7,-6.300000000000007
652,16.049710385137435
1717,0.0
1720,0.27529600000000006
1721,0.04288610733281196
1722,0.232409892667188
1723,30.03369910955464
1724,28.9117862354823
1730,40.84547919047124
1952,12.200000000024913
1953,12.200000000024913
2,1, 1,21, 0, 6, 0.00,60.00,WinterDesignDay
7,-6.300000000000007
652,16.04868260858905
1717,0.0
1720,0.27529600000000006
1721,0.04292796580659044
1722,0.23236803419340958
1723,30.041849781197269
1724,28.91884102429573
1730,40.84501400041586
1952,12.200000000024913
1953,12.200000000024913
2,1, 1,21, 0, 7, 0.00,60.00,WinterDesignDay
7,-6.300000000000007
652,16.092909520184798
1717,0.0
1720,0.039328
1721,0.006324441658241112
1722,0.03300355834175889
1723,30.006427895501444
1724,29.83997513487344
1730,40.856344972096348
1952,12.200000000024913
1953,12.200000000024913
2,1, 1,21, 0, 8, 0.00,60.00,WinterDesignDay
7,-6.300000000000007
652,16.05122271762102
1717,0.0
1720,0.117984
1721,0.018954354716360225
1722,0.09902964528363979
1723,30.01369966641479
1724,29.514828843683764
1730,40.86430032199745
1952,12.200000000024913
1953,12.200000000024913
2,1, 1,21, 0, 9, 0.00,60.00,WinterDesignDay
7,-6.300000000000007
652,16.058710730765893
1717,0.0
1720,0.078656
1721,0.012647500816686702
1722,0.0660084991833133
1723,30.027164079181725
1724,29.694305537469693
1730,40.86644871814018
1952,12.200000000024913
1953,12.200000000024913
2,1, 1,21, 0,10, 0.00,60.00,WinterDesignDay
7,-6.300000000000007
652,16.053794298409128
1717,0.0
1720,0.117984
1721,0.018946455982614086
1722,0.0990375440173859
1723,30.01645956565109
1724,29.517855005775293
1730,40.86769094769845
1952,12.200000000024913
1953,12.200000000024913
2,1, 1,21, 0,11, 0.00,60.00,WinterDesignDay
7,-6.300000000000007
652,16.04848095332204
1717,0.0
1720,0.117984
1721,0.018975863350880846
1722,0.09900813664911916
1723,30.029779130425248
1724,29.53042249918558
1730,40.86860882256513
1952,12.200000000024913
1953,12.200000000024913
2,1, 1,21, 0,12, 0.00,60.00,WinterDesignDay
7,-6.300000000000007
652,16.053891404911579
1717,0.0
1720,0.078656
1721,0.01262186014087708
1722,0.06603413985912292
1723,30.02005702291177
1724,29.687920087021668
1730,40.869374818012797
1952,12.200000000024913
1953,12.200000000024913
2,1, 1,21, 0,13, 0.00,60.00,WinterDesignDay
7,-6.300000000000007
652,16.057687116175669
1717,0.0
1720,0.117984
1721,0.018961662948764749
1722,0.09902233705123526
1723,30.03194074665174
1724,29.532993286863026
1730,40.87004519108023
1952,12.200000000024913
1953,12.200000000024913
2,1, 1,21, 0,14, 0.00,60.00,WinterDesignDay
7,-6.300000000000007
652,16.052163085869624
1717,0.0
1720,0.117984
1721,0.018978985360011696
1722,0.09900501463998832
1723,30.03416826601497
1724,29.534767825245017
1730,40.87064133792578
1952,12.200000000024913
1953,12.200000000024913
2,1, 1,21, 0,15, 0.00,60.00,WinterDesignDay
7,-6.300000000000007
652,16.051593652584953
1717,0.0
1720,0.117984
1721,0.018952233793226328
1722,0.09903176620677368
1723,30.019674300690875
1724,29.520978777540394
1730,40.87117482313094
1952,12.200000000024913
1953,12.200000000024913
2,1, 1,21, 0,16, 0.00,60.00,WinterDesignDay
7,-6.300000000000007
652,16.05849190266736
1717,0.0
1720,0.078656
1721,0.012614663345128046
1722,0.06604133665487196
1723,30.026627110545826
1724,29.69469779944956
1730,40.87165307791413
1952,12.200000000024913
1953,12.200000000024913
2,1, 1,21, 0,17, 0.00,60.00,WinterDesignDay
7,-6.300000000000007
652,16.05733374460486
1717,0.0
1720,0.117984
1721,0.01894772976380502
1722,0.09903627023619498
1723,30.020981827984316
1724,29.52241480702198
1730,40.87208217593514
1952,12.200000000024913
1953,12.200000000024913
2,1, 1,21, 0,18, 0.00,60.00,WinterDesignDay
7,-6.300000000000007
652,16.052558928224778
1717,0.0
1720,0.117984
1721,0.01894520272526833
1722,0.09903879727473168
1723,30.03208944524781
1724,29.533594614361485
1730,40.87246756711192
1952,12.200000000024913
1953,12.200000000024913
2,1, 1,21, 0,19, 0.00,60.00,WinterDesignDay
7,-6.300000000000007
652,16.041961590605493
1717,0.0
1720,0.4326080000000001
1721,0.06767563811356901
1722,0.36493236188643099
1723,30.10789521648253
1724,28.338724410420867
1730,40.86101525428719
1952,12.200000000024913
1953,12.200000000024913
2,1, 1,21, 0,20, 0.00,60.00,WinterDesignDay
7,-6.300000000000007
652,16.045137506644087
1717,0.0
1720,0.23596800000000005
1721,0.03676693528408565
1722,0.19920106471591435
1723,30.01636687635296
1724,29.054227000668719
1730,40.85297387898963
1952,12.200000000024913
1953,12.200000000024913
2,1, 1,21, 0,21, 0.00,60.00,WinterDesignDay
7,-6.300000000000007
652,16.037761904783687
1717,0.0
1720,0.27529600000000006
1721,0.04291853065112366
1722,0.23237746934887633
1723,30.012948393460886
1724,28.889563801887936
1730,40.85075114045448
1952,12.200000000024913
1953,12.200000000024913
2,1, 1,21, 0,22, 0.00,60.00,WinterDesignDay
7,-6.300000000000007
652,16.05198722233478
1717,0.0
1720,0.31462400000000009
1721,0.048992249381614349
1722,0.2656317506183857
1723,30.05472999261917
1724,28.773819185258657
1730,40.84943731519674
1952,12.200000000024913
1953,12.200000000024913
2,1, 1,21, 0,23, 0.00,60.00,WinterDesignDay
7,-6.300000000000007
652,16.05050458968803
1717,0.0
1720,0.31462400000000009
1721,0.04896775144555288
1722,0.2656562485544471
1723,30.04898491348731
1724,28.76860072204115
1730,40.84844890398689
1952,12.200000000024913
1953,12.200000000024913
2,1, 1,21, 0,24, 0.00,60.00,WinterDesignDay
7,-6.300000000000007
652,16.052974156462726
1717,0.0
1720,0.31462400000000009
1721,0.048822173435864497
1722,0.2658018265641355
1723,30.02327572230002
1724,28.746643652439908
1730,40.84761348825653
1952,12.200000000024913
1953,12.200000000024913
1,ATLANTA-HARTSFIELD.JACKSON.INTL.AP_GA_USA ANN CLG .4% CONDNS DB=>MWB,  33.63, -84.43,  -5.00, 308.00
2,1, 7,21, 0, 1, 0.00,60.00,SummerDesignDay
7,26.32025
652,19.176554787888965
1717,10105.154790156974
1720,2.3997551999999997
1721,0.49440932575365717
1722,1.9053458742463428
1723,11.017745448663668
1724,12.022789104703973
1730,28.954107978686915
1952,6.88344961403727
1953,7.942200868559926
2,1, 7,21, 0, 2, 0.00,60.00,SummerDesignDay
7,25.84683333333334
652,19.078779818175929
1717,9960.953281526214
1720,2.3997551999999997
1721,0.5042183419190357
1722,1.8955368580809647
1723,11.099839514097602
1724,12.090564412306899
1730,29.00114989316153
1952,7.119586882741276
1953,8.164020642210716
2,1, 7,21, 0, 3, 0.00,60.00,SummerDesignDay
7,25.515125
652,19.002238182526609
1717,9819.709345562582
1720,2.3997551999999997
1721,0.5092364014603706
1722,1.89051879853963
1723,11.16383866216931
1724,12.140533227558136
1730,29.066831285966388
1952,7.284739011941208
1953,8.315143423181145
2,1, 7,21, 0, 4, 0.00,60.00,SummerDesignDay
7,25.230124999999995
652,18.93777405904077
1717,9686.964643654826
1720,2.3997551999999997
1721,0.5133538170574432
1722,1.8864013829425564
1723,11.21767959796936
1724,12.18118588060239
1730,29.133638616200597
1952,7.425962837837838
1953,8.44317979457749
2,1, 7,21, 0, 5, 0.00,60.00,SummerDesignDay
7,24.993416666666673
652,18.881969739101917
1717,9568.10995947835
1720,2.3997551999999997
1721,0.5164273884587908
1722,1.8833278115412085
1723,11.264317897632163
1724,12.216015110937695
1730,29.19976953632889
1952,7.544027675604871
1953,8.549436280513815
2,1, 7,21, 0, 6, 0.00,60.00,SummerDesignDay
7,24.996583333333335
652,18.843794418614537
1717,9507.675402807483
1720,2.3997551999999997
1721,0.5106509151705725
1722,1.8891042848294278
1723,11.296695007279896
1724,12.24238984505383
1730,29.32614368393241
1952,7.545573915632698
1953,8.544980643122848
2,1, 7,21, 0, 7, 0.00,60.00,SummerDesignDay
7,25.42804166666666
652,19.203685412518916
1717,10786.312987335163
1720,2.3997551999999997
1721,0.5703930557648566
1722,1.829362144235144
1723,11.003100405041942
1724,12.0758862220868
1730,30.148716470141918
1952,7.335703317964299
1953,8.462196508199919
2,1, 7,21, 0, 8, 0.00,60.00,SummerDesignDay
7,26.575958333333334
652,19.429060222430853
1717,11073.960217968399
1720,2.3997551999999997
1721,0.5464034924541669
1722,1.8533517075458328
1723,10.813123573546858
1724,11.914458210657374
1730,30.200198562540498
1952,6.840959799294429
1953,7.995998887483821
2,1, 7,21, 0, 9, 0.00,60.00,SummerDesignDay
7,28.287541666666664
652,19.757522349821149
1717,11951.011550556435
1720,2.3997551999999997
1721,0.593001778821695
1722,1.8067534211783048
1723,10.540307140074332
1724,11.728773830305194
1730,30.200198562540498
1952,6.699999999999995
1953,7.9421669454952898
2,1, 7,21, 0,10, 0.00,60.00,SummerDesignDay
7,29.995958333333328
652,20.151085454131626
1717,12994.166531373992
1720,2.3997551999999997
1721,0.6724378372068844
1722,1.7273173627931158
1723,10.213888812203133
1724,11.505970596858218
1730,30.200198562540498
1952,6.699999999999993
1953,8.04577702072047
2,1, 7,21, 0,11, 0.00,60.00,SummerDesignDay
7,31.514374999999995
652,20.701952543431696
1717,14570.435914027648
1720,2.3997551999999997
1721,0.801124255217453
1722,1.5986309447825476
1723,9.75676650688801
1724,11.205378094015801
1730,30.200198562540498
1952,6.699999999999993
1953,8.202299172578878
2,1, 7,21, 0,12, 0.00,60.00,SummerDesignDay
7,32.697916666666667
652,21.29110756485562
1717,16062.221669306577
1720,2.3997551999999997
1721,0.9526291657206126
1722,1.4471260342793875
1723,9.26497429635408
1724,10.86163989449047
1730,30.200198562540498
1952,6.699999999999993
1953,8.350344365831973
2,1, 7,21, 0,13, 0.00,60.00,SummerDesignDay
7,33.55133333333333
652,21.750254414910914
1717,16971.57455636492
1720,2.3997551999999997
1721,1.0807640971457984
1722,1.3189911028542019
1723,8.87985063816483
1724,10.566694688327369
1730,30.200198562540498
1952,6.699999999999993
1953,8.440515914585749
2,1, 7,21, 0,14, 0.00,60.00,SummerDesignDay
7,34.16645833333333
652,22.001048122269247
1717,17194.38333150354
1720,2.3997551999999997
1721,1.150534535024642
1722,1.2492206649753573
1723,8.667690379229079
1724,10.376559366026191
1730,30.200198562540498
1952,6.699999999999993
1953,8.462537049034724
2,1, 7,21, 0,15, 0.00,60.00,SummerDesignDay
7,34.40000000000004
652,22.012920075938795
1717,16741.68351065479
1720,2.3997551999999997
1721,1.1391444752473599
1722,1.2606107247526402
1723,8.654410249084434
1724,10.318279924978448
1730,30.200198562540498
1952,6.699999999999993
1953,8.417537500205443
2,1, 7,21, 0,16, 0.00,60.00,SummerDesignDay
7,34.110250000000018
652,21.797294646240418
1717,15769.36759801004
1720,2.3997551999999997
1721,1.0521040941631877
1722,1.347651105836812
1723,8.831335519737135
1724,10.398663693669228
1730,30.200198562540498
1952,6.699999999999993
1953,8.320999168843361
2,1, 7,21, 0,17, 0.00,60.00,SummerDesignDay
7,33.44366666666667
652,21.456037800397909
1717,14735.461131684815
1720,2.3997551999999997
1721,0.9395757845792019
1722,1.460179415420798
1723,9.115158327837382
1724,10.579864742699057
1730,30.200198562540498
1952,6.699999999999993
1953,8.21838249687983
2,1, 7,21, 0,18, 0.00,60.00,SummerDesignDay
7,32.58708333333333
652,21.110911534265325
1717,13905.400114851189
1720,2.3997551999999997
1721,0.8439635917459076
1722,1.5557916082540924
1723,9.402732905196722
1724,10.785063899750533
1730,30.200198562540498
1952,6.699999999999993
1953,8.136012231888599
2,1, 7,21, 0,19, 0.00,60.00,SummerDesignDay
7,31.395624999999997
652,20.749793010443978
1717,13036.84782768513
1720,2.3997551999999997
1721,0.7538144213575192
1722,1.6459407786424805
1723,9.703235208597468
1724,10.99935357391444
1730,30.200198562540498
1952,6.699999999999993
1953,8.049804990788595
2,1, 7,21, 0,20, 0.00,60.00,SummerDesignDay
7,30.16379166666667
652,20.43392212253927
1717,12455.2234025879
1720,2.3997551999999997
1721,0.6882483741544759
1722,1.7115068258455233
1723,9.967961279036887
1724,11.206363832481337
1730,30.200198562540498
1952,6.699999999999993
1953,7.9920938856058119
2,1, 7,21, 0,21, 0.00,60.00,SummerDesignDay
7,29.215374999999999
652,20.162169752986008
1717,11932.06261450587
1720,2.3997551999999997
1721,0.635852432139781
1722,1.763902767860219
1723,10.194876527588964
1724,11.381341943324968
1730,30.200198562540498
1952,6.699999999999993
1953,7.940160359446941
2,1, 7,21, 0,22, 0.00,60.00,SummerDesignDay
7,28.360375
652,19.956572171837995
1717,11581.994008420073
1720,2.3997551999999997
1721,0.6003569564456052
1722,1.7993982435543952
1723,10.367056815047056
1724,11.518770003753247
1730,30.200198562540498
1952,6.699999999999993
1953,7.905410779831297
2,1, 7,21, 0,23, 0.00,60.00,SummerDesignDay
7,27.60195833333334
652,19.494505565303578
1717,10238.756204113253
1720,2.3997551999999997
1721,0.508005803243347
1722,1.8917493967566524
1723,10.747762811369303
1724,11.76601512641715
1730,28.768238399276006
1952,6.699999999999993
1953,7.771955760917616
2,1, 7,21, 0,24, 0.00,60.00,SummerDesignDay
7,26.936958333333334
652,19.3145401096023
1717,10310.368508287758
1720,2.3997551999999997
1721,0.49559642962871366
1722,1.9041587703712862
1723,10.90274917505628
1724,11.928169334174646
1730,28.6505858342636
1952,6.7027041521533159
1953,7.781830140868303
1,RUNPERIOD 1,  33.63, -84.43,  -5.00, 308.00
2,1, 7, 1, 0, 1, 0.00,60.00,Monday
7,21.118333333333337
652,17.974237523360846
1717,5672.877571238599
1720,0.3999592
1721,0.3540513960229317
1722,0.0459078039770683
1723,10.018934620357382
1724,10.582987173684142
1730,32.84682774916269
1952,9.61108267373362
1953,10.184083884991706
2,1, 7, 1, 0, 2, 0.00,60.00,Monday
7,22.098333333333334
652,17.973007412002329
1717,5625.307136872483
1720,0.3999592
1721,0.3113253222646738
1722,0.08863387773532623
1723,10.0
1724,10.55932165918358
1730,32.84682774916269
1952,8.97316831182584
1953,9.541438628940746
2,1, 7, 1, 0, 3, 0.00,60.00,Monday
7,21.949166666666675
652,17.97262895822904
1717,5208.730857445808
1720,0.35996328
1721,0.2863769803929897
1722,0.07358629960701031
1723,10.0
1724,10.517901674440314
1730,32.84682774916269
1952,9.045722317988258
1953,9.571677784566763
2,1, 7, 1, 0, 4, 0.00,60.00,Monday
7,21.79833333333333
652,17.97137189378181
1717,5276.875228949839
1720,0.35996328
1721,0.29164218307434838
1722,0.06832109692565164
1723,10.0
1724,10.524677237446254
1730,32.84682774916269
1952,9.115656749902242
1953,9.648387779486692
2,1, 7, 1, 0, 5, 0.00,60.00,Monday
7,21.700000000000025
652,17.969924347144933
1717,5830.682489113391
1720,0.3999592
1721,0.3280932696690955
1722,0.07186593033090455
1723,10.0
1724,10.57974203445835
1730,32.84682774916269
1952,9.17571923436375
1953,9.764409926753429
2,1, 7, 1, 0, 6, 0.00,60.00,Monday
7,21.954166666666663
652,17.979809212387705
1717,6867.950702317552
1720,0.4799510400000001
1721,0.3815998713580562
1722,0.0983511686419438
1723,10.0
1724,10.682877128047269
1730,29.875774861275205
1952,9.077319659857059
1953,9.770935177421915
2,1, 7, 1, 0, 7, 0.00,60.00,Monday
7,22.200000000000025
652,18.005442514808498
1717,12425.535982791911
1720,1.2798694400000004
1721,0.8928655250317453
1722,0.38700391496825456
1723,10.0
1724,11.235465234704387
1730,14.24593193383706
1952,8.93039155801821
1953,10.194492498102843
2,1, 7, 1, 0, 8, 0.00,60.00,Monday
7,23.31833333333333
652,19.218464075095655
1717,19720.533887137874
1720,2.3597592799999997
1721,2.359759279999999
1722,0.0
1723,8.464477409535876
1724,10.424283218706093
1730,9.902032980239909
1952,8.393895347393567
1953,10.406445380868254
2,1, 7, 1, 0, 9, 0.00,60.00,Monday
7,25.823333333333335
652,18.437105261880448
1717,17297.580831779753
1720,2.3997551999999997
1721,2.3196946446043267
1722,0.08006055539567386
1723,7.295011960290898
1724,9.013352411176156
1730,9.765422757104309
1952,7.177778821195636
1953,8.949757466288828
2,1, 7, 1, 0,10, 0.00,60.00,Monday
7,27.759166666666667
652,18.606930379391014
1717,14982.927099838429
1720,2.3997551999999997
1721,2.069010789626055
1722,0.3307444103739449
1723,7.0
1724,8.48825398811945
1730,9.765422757104309
1952,6.700000005584965
1953,8.241892187912358
2,1, 7, 1, 0,11, 0.00,60.00,Monday
7,29.164166666666668
652,19.0878129710029
1717,14667.357823219836
1720,2.3997551999999997
1721,2.063239811750037
1722,0.33651538824996315
1723,7.0
1724,8.456908495257732
1730,9.765422757104309
1952,6.699999999999993
1953,8.210546689465668
2,1, 7, 1, 0,12, 0.00,60.00,Monday
7,30.0
652,19.761345061669219
1717,15311.676664779454
1720,2.3997551999999997
1721,2.0750253151589859
1722,0.32472988484101458
1723,7.0
1724,8.520908678878858
1730,9.765422757104309
1952,6.699999999999993
1953,8.274546873086793
2,1, 7, 1, 0,13, 0.00,60.00,Monday
7,30.86416666666667
652,23.11889266419797
1717,1556.8469339298534
1720,0.9599020800000003
1721,0.0733770214349221
1722,0.8865250585650778
1723,12.0
1724,12.1548852596874
1730,9.765422757104309
1952,6.699999999999993
1953,6.876374344685646
2,1, 7, 1, 0,14, 0.00,60.00,Monday
7,29.717500000000006
652,22.136015041261815
1717,9295.790529898948
1720,2.3997551999999997
1721,0.37660520836249258
1722,2.0231499916375075
1723,12.0
1724,12.924805707513422
1730,9.765422757104309
1952,6.699999999999993
1953,7.678528420009034
2,1, 7, 1, 0,15, 0.00,60.00,Monday
7,28.613333333333335
652,21.9105583504125
1717,11264.357019793164
1720,2.3997551999999997
1721,0.4389024665993649
1722,1.9608527334006359
1723,12.0
1724,13.120651506708036
1730,9.765422757104309
1952,6.699999999999993
1953,7.87437421920365
2,1, 7, 1, 0,16, 0.00,60.00,Monday
7,28.0275
652,21.73215336977643
1717,11468.02031205462
1720,2.3997551999999997
1721,0.44509453736821599
1722,1.9546606626317842
1723,12.0
1724,13.14091325577484
1730,9.765422757104309
1952,6.699999999999993
1953,7.894635968270453
2,1, 7, 1, 0,17, 0.00,60.00,Monday
7,25.276666666666665
652,21.158595419988097
1717,11031.242329986511
1720,2.3997551999999997
1721,0.48546792960067816
1722,1.9142872703993226
1723,12.0
1724,13.097459741043244
1730,9.765422757104309
1952,7.382356417449596
1953,8.533538870988453
2,1, 7, 1, 0,18, 0.00,60.00,Monday
7,23.594999999999997
652,20.80778440128717
1717,17324.5078059215
1720,2.3997551999999997
1721,1.2145726069700618
1722,1.1851825930299387
1723,10.0
1724,11.722567713153211
1730,9.765422757104309
1952,8.233382334380554
1953,10.009641995121723
2,1, 7, 1, 0,19, 0.00,60.00,Monday
7,23.604999999999995
652,19.024458631118998
1717,12317.266503232218
1720,2.3997551999999997
1721,1.0275609455767377
1722,1.3721942544232622
1723,10.0
1724,11.22470005096014
1730,28.082359834589889
1952,8.2384173912346
1953,9.5168093897827
2,1, 7, 1, 0,20, 0.00,60.00,Monday
7,21.917500000000005
652,18.06137553479535
1717,5346.550244482456
1720,1.0398939200000004
1721,0.5043216728195503
1722,0.5355722471804497
1723,10.0
1724,10.531604991672492
1730,30.352706249702736
1952,8.906128663318829
1953,9.461000165612767
2,1, 7, 1, 0,21, 0.00,60.00,Monday
7,20.304999999999994
652,17.984560205133293
1717,4411.275450575124
1720,0.3999592
1721,0.3848141562968446
1722,0.01514504370315531
1723,10.0
1724,10.438611056089503
1730,30.015086175702348
1952,9.84540019031664
1953,10.292959904337467
2,1, 7, 1, 0,22, 0.00,60.00,Monday
7,20.294999999999996
652,17.971223614505683
1717,5486.389954487913
1720,0.4399551200000001
1721,0.42843616249445606
1722,0.011518957505543977
1723,10.001300584410633
1724,10.546810905408483
1730,32.79842270723926
1952,9.843587058494454
1953,10.398940903216765
2,1, 7, 1, 0,23, 0.00,60.00,Monday
7,20.0
652,17.969713101848805
1717,5060.765760216337
1720,0.3999592
1721,0.3999592
1722,0.0
1723,10.071447247861049
1724,10.574647256998342
1730,32.84004672110012
1952,10.018539210442663
1953,10.53068787751128
2,1, 7, 1, 0,24, 0.00,60.00,Monday
7,20.0
652,17.969341640408055
1717,6224.96953582894
1720,0.4799510400000001
1721,0.4799510400000001
1722,0.0
1723,10.073511733997153
1724,10.692470570628983
1730,32.84004672110012
1952,10.019819796784022
1953,10.649517022933442
2,2, 7, 2, 0, 1, 0.00,60.00,Tuesday
7,20.0
652,17.989216852043545
1717,4669.100119975423
1720,0.5999388000000001
1721,0.298793954593229
1722,0.301144845406771
1723,11.642821539377739
1724,12.10733328653467
1730,32.84004672110012
1952,10.019819819819169
1953,10.497762224529965
2,2, 7, 2, 0, 2, 0.00,60.00,Tuesday
7,20.0
652,17.99074329396034
1717,5414.172081364668
1720,0.6799306400000001
1721,0.3423490507664588
1722,0.3375815892335412
1723,11.996085412354195
1724,12.534721678003665
1730,32.84004672110012
1952,10.019819819819825
1953,10.573677498296688
2,2, 7, 2, 0, 3, 0.00,60.00,Tuesday
7,19.440833333333335
652,17.985925722751273
1717,4329.698950193938
1720,0.5199469600000001
1721,0.28466575269226299
1722,0.23528120730773714
1723,11.996179517310985
1724,12.42692557310854
1730,32.84004672110012
1952,10.245273320050189
1953,10.68765928175725
2,2, 7, 2, 0, 4, 0.00,60.00,Tuesday
7,19.154166666666666
652,17.98494989033821
1717,5324.180607025143
1720,0.5999388000000001
1721,0.3547734604340187
1722,0.24516533956598128
1723,11.997912426199946
1724,12.527596122775727
1730,32.84004672110012
1952,10.458654743809208
1953,11.00176910776318
2,2, 7, 2, 0, 5, 0.00,60.00,Tuesday
7,19.399999999999996
652,17.983444654686918
1717,4428.8496216040989
1720,0.4799510400000001
1721,0.2787083912042597
1722,0.20124264879574028
1723,11.99669103813987
1724,12.437301222395574
1730,32.84004672110012
1952,10.318119520293525
1953,10.769474232780775
2,2, 7, 2, 0, 6, 0.00,60.00,Tuesday
7,19.399999999999996
652,17.987567166096356
1717,5526.533850477813
1720,0.5999388000000001
1721,0.3481135904743709
1722,0.25182520952562917
1723,11.9952386209761
1724,12.545053437010007
1730,32.84004672110012
1952,10.317117120801809
1953,10.88036259726001
2,2, 7, 2, 0, 7, 0.00,60.00,Tuesday
7,19.705
652,18.005402599528929
1717,9643.447040748242
1720,1.5198449600000006
1721,0.7119456016383167
1722,0.8078993583616835
1723,11.992572526424839
1724,12.951962439240532
1730,29.825535140692194
1952,10.176481056771527
1953,11.1698952516629
2,2, 7, 2, 0, 8, 0.00,60.00,Tuesday
7,21.118333333333337
652,18.924734503362005
1717,12560.525890374707
1720,2.3997551999999997
1721,1.0385547852695874
1722,1.3612004147304129
1723,11.247993431005608
1724,12.497329845122671
1730,11.321844364969627
1952,9.48375305052941
1953,10.786800605435064
2,2, 7, 2, 0, 9, 0.00,60.00,Tuesday
7,23.62333333333333
652,19.194502970896115
1717,10566.331047653097
1720,2.3997551999999997
1721,0.7011522246779915
1722,1.6986029753220085
1723,11.005587832720892
1724,12.056494506897345
1730,11.257857855188913
1952,8.247549536458142
1953,9.35216362211731
2,2, 7, 2, 0,10, 0.00,60.00,Tuesday
7,25.55916666666667
652,19.643423445447753
1717,11623.868229661402
1720,2.3997551999999997
1721,0.6424849616572678
1722,1.757270238342733
1723,10.636558730308274
1724,11.792524476328398
1730,11.257857855188913
1952,7.27449803509032
1953,8.484165516641334
2,2, 7, 2, 0,11, 0.00,60.00,Tuesday
7,26.65916666666666
652,20.124807052488703
1717,12786.990550504914
1720,2.3997551999999997
1721,0.6731650997065544
1722,1.7265901002934457
1723,10.236503564586377
1724,11.507992821003022
1730,11.257857855188913
1952,6.783661685662574
1953,8.108846525871627
2,2, 7, 2, 0,12, 0.00,60.00,Tuesday
7,28.06416666666667
652,20.673139382401755
1717,14150.990691362997
1720,2.3997551999999997
1721,0.7819897441525437
1722,1.6177654558474557
1723,9.780161897980382
1724,11.187083124903884
1730,11.257857855188913
1952,6.699999999999993
1953,8.160609230651235
2,2, 7, 2, 0,13, 0.00,60.00,Tuesday
7,29.459166666666666
652,22.774760014963669
1717,20528.170221316755
1720,2.3997551999999997
1721,1.4944277101230624
1722,0.9053274898769377
1723,8.051420736245035
1724,10.091194226695896
1730,11.257857855188913
1952,6.699999999999993
1953,8.793430512342452
2,2, 7, 2, 0,14, 0.00,60.00,Tuesday
7,29.440833333333328
652,21.573061624619887
1717,13331.16436298177
1720,2.3997551999999997
1721,0.9190235849460015
1722,1.4807316150539985
1723,8.999108047765242
1724,10.32416708898176
1730,11.257857855188913
1952,6.699999999999993
1953,8.078733043553353
2,2, 7, 2, 0,15, 0.00,60.00,Tuesday
7,29.76416666666667
652,21.450237231739654
1717,14552.474349952136
1720,2.3997551999999997
1721,0.9298327371463441
1722,1.4699224628536554
1723,9.125099735751093
1724,10.571622609594192
1730,11.257857855188913
1952,6.699999999999993
1953,8.200199134033584
2,2, 7, 2, 0,16, 0.00,60.00,Tuesday
7,30.854166666666669
652,21.423687155273688
1717,14640.079016613725
1720,2.3997551999999997
1721,0.9283926380503168
1722,1.4713625619496834
1723,9.145318520827156
1724,10.600559081254032
1730,11.257857855188913
1952,6.699999999999993
1953,8.208917183093649
2,2, 7, 2, 0,17, 0.00,60.00,Tuesday
7,30.84583333333334
652,21.252392156969113
1717,14054.8368248005
1720,2.3997551999999997
1721,0.8740737801970557
1722,1.5256814198029448
1723,9.28671773665449
1724,10.683850381469645
1730,11.257857855188913
1952,6.699999999999993
1953,8.150811802210928
2,2, 7, 2, 0,18, 0.00,60.00,Tuesday
7,30.59999999999997
652,22.761845562469206
1717,19092.589504453837
1720,2.3997551999999997
1721,1.4454836732784105
1722,0.9542715267215892
1723,8.054245501891517
1724,9.951372685160069
1730,11.571067027167823
1952,6.699999999999993
1953,8.650784255425359
2,2, 7, 2, 0,19, 0.00,60.00,Tuesday
7,29.430833333333337
652,20.17921859381361
1717,7699.778647339363
1720,2.3997551999999997
1721,0.48073608642980839
1722,1.9190191135701907
1723,10.14113087675589
1724,10.906717402417293
1730,31.11889682576251
1952,6.699999999999993
1953,7.51928023058738
2,2, 7, 2, 0,20, 0.00,60.00,Tuesday
7,26.927500000000003
652,18.929796317442376
1717,7145.626942563193
1720,2.3997551999999997
1721,0.3591053465667869
1722,2.0406498534332146
1723,11.210524051087429
1724,11.92125682819375
1730,32.24236330775283
1952,6.806747806659073
1953,7.571191148007325
2,2, 7, 2, 0,21, 0.00,60.00,Tuesday
7,24.430833333333334
652,18.380587799167935
1717,7342.156453362262
1720,2.3997551999999997
1721,0.4097796544948495
1722,1.9899755455051507
1723,11.676805947053703
1724,12.407183632368695
1730,32.12670961308702
1952,7.8053358271082369
1953,8.589431250822255
2,2, 7, 2, 0,22, 0.00,60.00,Tuesday
7,23.045833333333339
652,18.06513359035115
1717,7241.809039426892
1720,2.3997551999999997
1721,0.4469228379957928
1722,1.9528323620042072
1723,11.943196112588563
1724,12.663646725230219
1730,21.601471506301356
1952,8.506349810575625
1953,9.280522261177249
2,2, 7, 2, 0,23, 0.00,60.00,Tuesday
7,22.494999999999999
652,18.000830972520555
1717,5476.703535327657
1720,1.3198653600000006
1721,0.3265719760935067
1722,0.9932933839064935
1723,11.996639243316743
1724,12.541496622214119
1730,11.966747042563006
1952,8.772014451294277
1953,9.346419283218955
2,2, 7, 2, 0,24, 0.00,60.00,Tuesday
7,21.640833333333334
652,17.997109151025879
1717,4865.730796698336
1720,0.8799102400000003
1721,0.2907304662531068
1722,0.5891797737468933
1723,11.99522396564959
1724,12.479297611448999
1730,11.966747042563006
1952,9.171999811654109
1953,9.675771748378616
End of Data
 Number of Records Written=        1056
