Program Version,EnergyPlus, Version 9.4.0-998c4b761e, YMD=2021.07.15 14:54
1,5,Environment Title[],Latitude[deg],Longitude[deg],Time Zone[],Elevation[m]
2,8,Day of Simulation[],Month[],Day of Month[],DST Indicator[1=yes 0=no],Hour[],StartMinute[],EndMinute[],DayType
3,5,Cumulative Day of Simulation[],Month[],Day of Month[],DST Indicator[1=yes 0=no],DayType  ! When Daily Meters Requested
4,2,Cumulative Days of Simulation[],Month[]  ! When Monthly Meters Requested
5,1,Cumulative Days of Simulation[] ! When Run Period Meters Requested
6,1,Calendar Year of Simulation[] ! When Annual Meters Requested
59,1,Electricity:Facility [J] !Hourly
1716,1,ElectricityNet:Facility [J] !Hourly
95,1,InteriorLights:Electricity [J] !Hourly
512,1,InteriorEquipment:Electricity [J] !Hourly
End of Data Dictionary
1,ATLANTA-HARTSFIELD.JACKSON.INTL.AP_GA_USA ANN HTG 99.6% CONDNS DB,  33.63, -84.43,  -5.00, 308.00
2,1, 1,21, 0, 1, 0.00,60.00,WinterDesignDay
59,119520940.75260316
95,0.0
512,0.0
1716,119520940.75260313
2,1, 1,21, 0, 2, 0.00,60.00,WinterDesignDay
59,119448940.75260316
95,0.0
512,0.0
1716,119448940.75260313
2,1, 1,21, 0, 3, 0.00,60.00,WinterDesignDay
59,119484940.75260316
95,0.0
512,0.0
1716,119484940.75260313
2,1, 1,21, 0, 4, 0.00,60.00,WinterDesignDay
59,119448940.75260316
95,0.0
512,0.0
1716,119448940.75260313
2,1, 1,21, 0, 5, 0.00,60.00,WinterDesignDay
59,119484940.75260316
95,0.0
512,0.0
1716,119484940.75260313
2,1, 1,21, 0, 6, 0.00,60.00,WinterDesignDay
59,119484940.75260316
95,0.0
512,0.0
1716,119484940.75260313
2,1, 1,21, 0, 7, 0.00,60.00,WinterDesignDay
59,129737200.75260313
95,0.0
512,0.0
1716,129737200.75260313
2,1, 1,21, 0, 8, 0.00,60.00,WinterDesignDay
59,125060350.75260313
95,0.0
512,0.0
1716,125060350.75260313
2,1, 1,21, 0, 9, 0.00,60.00,WinterDesignDay
59,110993800.75260318
95,0.0
512,0.0
1716,110993800.75260315
2,1, 1,21, 0,10, 0.00,60.00,WinterDesignDay
59,110921800.75260318
95,0.0
512,0.0
1716,110921800.75260315
2,1, 1,21, 0,11, 0.00,60.00,WinterDesignDay
59,110957800.75260318
95,0.0
512,0.0
1716,110957800.75260315
2,1, 1,21, 0,12, 0.00,60.00,WinterDesignDay
59,110921800.75260318
95,0.0
512,0.0
1716,110921800.75260315
2,1, 1,21, 0,13, 0.00,60.00,WinterDesignDay
59,110993800.75260318
95,0.0
512,0.0
1716,110993800.75260315
2,1, 1,21, 0,14, 0.00,60.00,WinterDesignDay
59,110921800.75260318
95,0.0
512,0.0
1716,110921800.75260315
2,1, 1,21, 0,15, 0.00,60.00,WinterDesignDay
59,110957800.75260318
95,0.0
512,0.0
1716,110957800.75260315
2,1, 1,21, 0,16, 0.00,60.00,WinterDesignDay
59,110921800.75260318
95,0.0
512,0.0
1716,110921800.75260315
2,1, 1,21, 0,17, 0.00,60.00,WinterDesignDay
59,110957800.75260318
95,0.0
512,0.0
1716,110957800.75260315
2,1, 1,21, 0,18, 0.00,60.00,WinterDesignDay
59,113471320.75260318
95,0.0
512,0.0
1716,113471320.75260315
2,1, 1,21, 0,19, 0.00,60.00,WinterDesignDay
59,129917200.75260313
95,0.0
512,0.0
1716,129917200.75260313
2,1, 1,21, 0,20, 0.00,60.00,WinterDesignDay
59,122030320.75260316
95,0.0
512,0.0
1716,122030320.75260313
2,1, 1,21, 0,21, 0.00,60.00,WinterDesignDay
59,121994320.75260316
95,0.0
512,0.0
1716,121994320.75260313
2,1, 1,21, 0,22, 0.00,60.00,WinterDesignDay
59,122030320.75260316
95,0.0
512,0.0
1716,122030320.75260313
2,1, 1,21, 0,23, 0.00,60.00,WinterDesignDay
59,122030320.75260316
95,0.0
512,0.0
1716,122030320.75260313
2,1, 1,21, 0,24, 0.00,60.00,WinterDesignDay
59,121994320.75260316
95,0.0
512,0.0
1716,121994320.75260313
1,ATLANTA-HARTSFIELD.JACKSON.INTL.AP_GA_USA ANN CLG .4% CONDNS DB=>MWB,  33.63, -84.43,  -5.00, 308.00
2,1, 7,21, 0, 1, 0.00,60.00,SummerDesignDay
59,527725681.51700356
95,152517470.7542746
512,224813060.55296675
1716,527725681.51700356
2,1, 7,21, 0, 2, 0.00,60.00,SummerDesignDay
59,528421681.51700356
95,152517470.7542746
512,224813060.55296675
1716,528421681.51700356
2,1, 7,21, 0, 3, 0.00,60.00,SummerDesignDay
59,528565681.51700356
95,152517470.7542746
512,224813060.55296675
1716,528565681.51700356
2,1, 7,21, 0, 4, 0.00,60.00,SummerDesignDay
59,528667681.51700356
95,152517470.7542746
512,224813060.55296675
1716,528667681.51700356
2,1, 7,21, 0, 5, 0.00,60.00,SummerDesignDay
59,528703681.51700356
95,152517470.7542746
512,224813060.55296675
1716,528703681.51700356
2,1, 7,21, 0, 6, 0.00,60.00,SummerDesignDay
59,526553277.27540436
95,152399851.51267544
512,224813060.55296675
1716,526553277.27540436
2,1, 7,21, 0, 7, 0.00,60.00,SummerDesignDay
59,495898240.4427443
95,129457169.68001552
512,224813060.55296675
1716,495898240.4427444
2,1, 7,21, 0, 8, 0.00,60.00,SummerDesignDay
59,487003378.84561809
95,120340308.08288898
512,224813060.55296675
1716,487003378.84561809
2,1, 7,21, 0, 9, 0.00,60.00,SummerDesignDay
59,470958182.3784695
95,119991185.40467149
512,224813060.55296675
1716,470958182.3784695
2,1, 7,21, 0,10, 0.00,60.00,SummerDesignDay
59,467546369.8952403
95,119991185.40467149
512,224813060.55296675
1716,467546369.8952403
2,1, 7,21, 0,11, 0.00,60.00,SummerDesignDay
59,467546369.8952403
95,119991185.40467149
512,224813060.55296675
1716,467546369.8952403
2,1, 7,21, 0,12, 0.00,60.00,SummerDesignDay
59,467546369.8952403
95,119991185.40467149
512,224813060.55296675
1716,467546369.8952403
2,1, 7,21, 0,13, 0.00,60.00,SummerDesignDay
59,467546369.8952403
95,119991185.40467149
512,224813060.55296675
1716,467546369.8952403
2,1, 7,21, 0,14, 0.00,60.00,SummerDesignDay
59,467546369.8952403
95,119991185.40467149
512,224813060.55296675
1716,467546369.8952403
2,1, 7,21, 0,15, 0.00,60.00,SummerDesignDay
59,467546369.8952403
95,119991185.40467149
512,224813060.55296675
1716,467546369.8952403
2,1, 7,21, 0,16, 0.00,60.00,SummerDesignDay
59,467582369.8952403
95,119991185.40467149
512,224813060.55296675
1716,467582369.8952403
2,1, 7,21, 0,17, 0.00,60.00,SummerDesignDay
59,467546369.8952403
95,119991185.40467149
512,224813060.55296675
1716,467546369.8952403
2,1, 7,21, 0,18, 0.00,60.00,SummerDesignDay
59,467622625.66364267
95,120025441.17307365
512,224813060.55296675
1716,467622625.66364267
2,1, 7,21, 0,19, 0.00,60.00,SummerDesignDay
59,469823331.0230265
95,122268146.53245703
512,224813060.55296675
1716,469823331.0230265
2,1, 7,21, 0,20, 0.00,60.00,SummerDesignDay
59,497665266.37891206
95,146615183.8883431
512,224813060.55296675
1716,497665266.37891206
2,1, 7,21, 0,21, 0.00,60.00,SummerDesignDay
59,511109175.2448435
95,152517470.7542746
512,224813060.55296675
1716,511109175.2448435
2,1, 7,21, 0,22, 0.00,60.00,SummerDesignDay
59,511109175.2448435
95,152517470.7542746
512,224813060.55296675
1716,511109175.2448435
2,1, 7,21, 0,23, 0.00,60.00,SummerDesignDay
59,511109175.2448435
95,152517470.7542746
512,224813060.55296675
1716,511109175.2448435
2,1, 7,21, 0,24, 0.00,60.00,SummerDesignDay
59,523235601.32174786
95,152517470.7542746
512,224813060.55296675
1716,523235601.32174786
1,RUNPERIOD 1,  33.63, -84.43,  -5.00, 308.00
2,1, 7, 1, 0, 1, 0.00,60.00,Monday
59,61669277.693370599
95,7625873.53771374
512,44533202.00181081
1716,61669277.69337059
2,1, 7, 1, 0, 2, 0.00,60.00,Monday
59,61523697.385678287
95,7625873.53771374
512,44533202.00181081
1716,61523697.38567828
2,1, 7, 1, 0, 3, 0.00,60.00,Monday
59,62044477.38945144
95,7625873.53771374
512,44533202.00181081
1716,62044477.38945143
2,1, 7, 1, 0, 4, 0.00,60.00,Monday
59,66137927.26579049
95,7625873.53771374
512,44533202.00181081
1716,66137927.26579049
2,1, 7, 1, 0, 5, 0.00,60.00,Monday
59,73283267.0109224
95,7625873.53771374
512,44533202.00181081
1716,73283267.0109224
2,1, 7, 1, 0, 6, 0.00,60.00,Monday
59,82637828.37321107
95,14826659.093040085
512,44533202.00181081
1716,82637828.37321107
2,1, 7, 1, 0, 7, 0.00,60.00,Monday
59,102288760.61813225
95,10780982.974969442
512,55180531.87831209
1716,102288760.61813227
2,1, 7, 1, 0, 8, 0.00,60.00,Monday
59,267546753.99712093
95,31228029.151647625
512,95796493.41677362
1716,267546753.9971212
2,1, 7, 1, 0, 9, 0.00,60.00,Monday
59,439321997.8228461
95,93124323.85391505
512,204227663.7591696
1716,439321997.8228461
2,1, 7, 1, 0,10, 0.00,60.00,Monday
59,394318561.20466646
95,93124323.85391505
512,174055806.61631225
1716,394318561.2046665
2,1, 7, 1, 0,11, 0.00,60.00,Monday
59,382959518.14409378
95,93124323.85391505
512,167093070.3525762
1716,382959518.14409378
2,1, 7, 1, 0,12, 0.00,60.00,Monday
59,389922254.4078293
95,93124323.85391505
512,174055806.61631225
1716,389922254.40782937
2,1, 7, 1, 0,13, 0.00,60.00,Monday
59,390767936.2514388
95,93124323.85391505
512,177667514.30607493
1716,390767936.2514388
2,1, 7, 1, 0,14, 0.00,60.00,Monday
59,395724534.6276102
95,93124323.85391505
512,179858086.83609239
1716,395724534.6276102
2,1, 7, 1, 0,15, 0.00,60.00,Monday
59,382959518.14409378
95,93124323.85391505
512,167093070.3525762
1716,382959518.14409378
2,1, 7, 1, 0,16, 0.00,60.00,Monday
59,382969185.65807059
95,93133991.36789204
512,167093070.3525762
1716,382969185.65807059
2,1, 7, 1, 0,17, 0.00,60.00,Monday
59,394438798.56842669
95,94159499.8826439
512,177537174.74818046
1716,394438798.56842669
2,1, 7, 1, 0,18, 0.00,60.00,Monday
59,319903461.63727429
95,52825585.64327789
512,140923939.57316477
1716,319903461.63727429
2,1, 7, 1, 0,19, 0.00,60.00,Monday
59,244085687.04615776
95,32913672.430611485
512,69106004.40578471
1716,244085687.04615776
2,1, 7, 1, 0,20, 0.00,60.00,Monday
59,243890977.34723784
95,38885365.08333975
512,59822356.054136309
1716,243890977.34723784
2,1, 7, 1, 0,21, 0.00,60.00,Monday
59,239132977.85193805
95,26303943.895732464
512,59822356.054136309
1716,239132977.8519381
2,1, 7, 1, 0,22, 0.00,60.00,Monday
59,115638758.38667983
95,26303943.895732464
512,55180531.87831209
1716,115638758.38667983
2,1, 7, 1, 0,23, 0.00,60.00,Monday
59,87001396.7945331
95,13151971.947866232
512,55180531.87831209
1716,87001396.79453309
2,1, 7, 1, 0,24, 0.00,60.00,Monday
59,83258930.22785433
95,6575985.973933116
512,55180531.87831209
1716,83258930.22785433
2,2, 7, 2, 0, 1, 0.00,60.00,Tuesday
59,62917959.235605288
95,7625873.53771374
512,44533202.00181081
1716,62917959.235605288
2,2, 7, 2, 0, 2, 0.00,60.00,Tuesday
59,62469969.385678287
95,7625873.53771374
512,44533202.00181081
1716,62469969.38567828
2,2, 7, 2, 0, 3, 0.00,60.00,Tuesday
59,62106018.616447519
95,7625873.53771374
512,44533202.00181081
1716,62106018.61644751
2,2, 7, 2, 0, 4, 0.00,60.00,Tuesday
59,66501878.03502129
95,7625873.53771374
512,44533202.00181081
1716,66501878.03502128
2,2, 7, 2, 0, 5, 0.00,60.00,Tuesday
59,72230458.076526
95,7625873.53771374
512,44533202.00181081
1716,72230458.07652603
2,2, 7, 2, 0, 6, 0.00,60.00,Tuesday
59,80599386.79827123
95,15251747.07542748
512,44533202.00181081
1716,80599386.79827123
2,2, 7, 2, 0, 7, 0.00,60.00,Tuesday
59,101151018.23943588
95,12081689.219203884
512,55180531.87831209
1716,101151018.23943588
2,2, 7, 2, 0, 8, 0.00,60.00,Tuesday
59,267317919.1037598
95,31130404.104440474
512,95796493.41677362
1716,267317919.1037598
2,2, 7, 2, 0, 9, 0.00,60.00,Tuesday
59,439423997.8228461
95,93124323.85391505
512,204227663.7591696
1716,439423997.8228461
2,2, 7, 2, 0,10, 0.00,60.00,Tuesday
59,408952140.6799891
95,93124323.85391505
512,174055806.61631225
1716,408952140.67998918
2,2, 7, 2, 0,11, 0.00,60.00,Tuesday
59,401983404.41625246
95,93124323.85391505
512,167093070.3525762
1716,401983404.41625246
2,2, 7, 2, 0,12, 0.00,60.00,Tuesday
59,404101669.11194887
95,93124323.85391505
512,174055806.61631225
1716,404101669.1119489
2,2, 7, 2, 0,13, 0.00,60.00,Tuesday
59,408333706.3441169
95,93124323.85391505
512,177667514.30607493
1716,408333706.34411707
2,2, 7, 2, 0,14, 0.00,60.00,Tuesday
59,395724534.6276102
95,93124323.85391505
512,179858086.83609239
1716,395724534.6276102
2,2, 7, 2, 0,15, 0.00,60.00,Tuesday
59,382959518.14409378
95,93124323.85391505
512,167093070.3525762
1716,382959518.14409378
2,2, 7, 2, 0,16, 0.00,60.00,Tuesday
59,382959518.14409378
95,93124323.85391505
512,167093070.3525762
1716,382959518.14409378
2,2, 7, 2, 0,17, 0.00,60.00,Tuesday
59,393403622.5396978
95,93124323.85391505
512,177537174.74818046
1716,393403622.5396979
2,2, 7, 2, 0,18, 0.00,60.00,Tuesday
59,315415226.0879102
95,51749162.5771431
512,140923939.57316477
1716,315415226.08791008
2,2, 7, 2, 0,19, 0.00,60.00,Tuesday
59,227130720.3903293
95,31518614.792510638
512,69106004.40578471
1716,227130720.3903295
2,2, 7, 2, 0,20, 0.00,60.00,Tuesday
59,241746141.9262544
95,37382529.66235644
512,59822356.054136309
1716,241746141.92625446
2,2, 7, 2, 0,21, 0.00,60.00,Tuesday
59,239234830.1596302
95,26303943.895732464
512,59822356.054136309
1716,239234830.1596302
2,2, 7, 2, 0,22, 0.00,60.00,Tuesday
59,126356349.96844714
95,26303943.895732464
512,55180531.87831209
1716,126356349.96844715
2,2, 7, 2, 0,23, 0.00,60.00,Tuesday
59,115919233.28333685
95,13151971.947866232
512,55180531.87831209
1716,115919233.28333685
2,2, 7, 2, 0,24, 0.00,60.00,Tuesday
59,81847467.11697291
95,6575985.973933116
512,55180531.87831209
1716,81847467.11697291
End of Data
 Number of Records Written=         384
