Program Version,EnergyPlus, Version 9.4.0-998c4b761e, YMD=2021.07.15 14:25
1,5,Environment Title[],Latitude[deg],Longitude[deg],Time Zone[],Elevation[m]
2,8,Day of Simulation[],Month[],Day of Month[],DST Indicator[1=yes 0=no],Hour[],StartMinute[],EndMinute[],DayType
3,5,Cumulative Day of Simulation[],Month[],Day of Month[],DST Indicator[1=yes 0=no],DayType  ! When Daily Report Variables Requested
4,2,Cumulative Days of Simulation[],Month[]  ! When Monthly Report Variables Requested
5,1,Cumulative Days of Simulation[] ! When Run Period Report Variables Requested
6,1,Calendar Year of Simulation[] ! When Annual Report Variables Requested
773,1,PERIMETER_BOT_ZN_1,Zone Mean Air Temperature [C] !Hourly
2050,1,PERI1_TOP_LOTEMP,Zone Radiant HVAC Cooling Rate [W] !Hourly
End of Data Dictionary
1,ATLANTA-HARTSFIELD.JACKSON.INTL.AP_GA_USA ANN HTG 99.6% CONDNS DB,  33.63, -84.43,  -5.00, 308.00
2,1, 1,21, 0, 1, 0.00,60.00,WinterDesignDay
773,16.062705341300128
2050,0.0
2,1, 1,21, 0, 2, 0.00,60.00,WinterDesignDay
773,16.112952365353629
2050,0.0
2,1, 1,21, 0, 3, 0.00,60.00,WinterDesignDay
773,16.083392503635378
2050,0.0
2,1, 1,21, 0, 4, 0.00,60.00,WinterDesignDay
773,16.079734867955165
2050,0.0
2,1, 1,21, 0, 5, 0.00,60.00,WinterDesignDay
773,16.087735476950987
2050,0.0
2,1, 1,21, 0, 6, 0.00,60.00,WinterDesignDay
773,16.080553548116169
2050,0.0
2,1, 1,21, 0, 7, 0.00,60.00,WinterDesignDay
773,16.097537352327988
2050,0.0
2,1, 1,21, 0, 8, 0.00,60.00,WinterDesignDay
773,16.054561350309368
2050,0.0
2,1, 1,21, 0, 9, 0.00,60.00,WinterDesignDay
773,16.04874770130479
2050,0.0
2,1, 1,21, 0,10, 0.00,60.00,WinterDesignDay
773,16.075467548984944
2050,0.0
2,1, 1,21, 0,11, 0.00,60.00,WinterDesignDay
773,16.070871595069318
2050,0.0
2,1, 1,21, 0,12, 0.00,60.00,WinterDesignDay
773,16.05919483000258
2050,0.0
2,1, 1,21, 0,13, 0.00,60.00,WinterDesignDay
773,16.08462066010662
2050,0.0
2,1, 1,21, 0,14, 0.00,60.00,WinterDesignDay
773,16.072955581841105
2050,0.0
2,1, 1,21, 0,15, 0.00,60.00,WinterDesignDay
773,16.075877882730699
2050,0.0
2,1, 1,21, 0,16, 0.00,60.00,WinterDesignDay
773,16.081694471476636
2050,0.0
2,1, 1,21, 0,17, 0.00,60.00,WinterDesignDay
773,16.078612312325345
2050,0.0
2,1, 1,21, 0,18, 0.00,60.00,WinterDesignDay
773,16.081919338527795
2050,0.0
2,1, 1,21, 0,19, 0.00,60.00,WinterDesignDay
773,16.10527191061677
2050,0.0
2,1, 1,21, 0,20, 0.00,60.00,WinterDesignDay
773,16.089344892440015
2050,0.0
2,1, 1,21, 0,21, 0.00,60.00,WinterDesignDay
773,16.09286478273395
2050,0.0
2,1, 1,21, 0,22, 0.00,60.00,WinterDesignDay
773,16.068772224302326
2050,0.0
2,1, 1,21, 0,23, 0.00,60.00,WinterDesignDay
773,16.061225759696759
2050,0.0
2,1, 1,21, 0,24, 0.00,60.00,WinterDesignDay
773,16.09771649253503
2050,0.0
1,ATLANTA-HARTSFIELD.JACKSON.INTL.AP_GA_USA ANN CLG .4% CONDNS DB=>MWB,  33.63, -84.43,  -5.00, 308.00
2,1, 7,21, 0, 1, 0.00,60.00,SummerDesignDay
773,19.673806436307136
2050,11120.750199910899
2,1, 7,21, 0, 2, 0.00,60.00,SummerDesignDay
773,19.51557888693589
2050,10855.738892913907
2,1, 7,21, 0, 3, 0.00,60.00,SummerDesignDay
773,19.38755780037998
2050,10619.590673654913
2,1, 7,21, 0, 4, 0.00,60.00,SummerDesignDay
773,19.27977603445998
2050,10407.208126378591
2,1, 7,21, 0, 5, 0.00,60.00,SummerDesignDay
773,19.1871546192342
2050,10219.15168599502
2,1, 7,21, 0, 6, 0.00,60.00,SummerDesignDay
773,19.11703249524088
2050,10095.943422154156
2,1, 7,21, 0, 7, 0.00,60.00,SummerDesignDay
773,19.437010196155084
2050,11275.636618900866
2,1, 7,21, 0, 8, 0.00,60.00,SummerDesignDay
773,19.611421408916259
2050,11423.502283101876
2,1, 7,21, 0, 9, 0.00,60.00,SummerDesignDay
773,19.86815677981904
2050,12109.185875011228
2,1, 7,21, 0,10, 0.00,60.00,SummerDesignDay
773,20.222226346319613
2050,13114.741017121147
2,1, 7,21, 0,11, 0.00,60.00,SummerDesignDay
773,20.770547328836608
2050,14739.40824751487
2,1, 7,21, 0,12, 0.00,60.00,SummerDesignDay
773,21.390362640634593
2050,16360.845975522623
2,1, 7,21, 0,13, 0.00,60.00,SummerDesignDay
773,21.936902081497498
2050,17558.36723497555
2,1, 7,21, 0,14, 0.00,60.00,SummerDesignDay
773,22.324630124321446
2050,18163.739769923897
2,1, 7,21, 0,15, 0.00,60.00,SummerDesignDay
773,22.492658864714487
2050,18089.093077257825
2,1, 7,21, 0,16, 0.00,60.00,SummerDesignDay
773,22.426622159094788
2050,17430.744537581028
2,1, 7,21, 0,17, 0.00,60.00,SummerDesignDay
773,22.195822772266366
2050,16566.58571123907
2,1, 7,21, 0,18, 0.00,60.00,SummerDesignDay
773,21.907443686278005
2050,15771.194933050423
2,1, 7,21, 0,19, 0.00,60.00,SummerDesignDay
773,21.55802446742321
2050,14850.686017874796
2,1, 7,21, 0,20, 0.00,60.00,SummerDesignDay
773,21.21606994577023
2050,14145.28702548239
2,1, 7,21, 0,21, 0.00,60.00,SummerDesignDay
773,20.898293624194307
2050,13493.362953674641
2,1, 7,21, 0,22, 0.00,60.00,SummerDesignDay
773,20.63172802422027
2050,12991.77079749028
2,1, 7,21, 0,23, 0.00,60.00,SummerDesignDay
773,20.122397788708747
2050,11568.058311546545
2,1, 7,21, 0,24, 0.00,60.00,SummerDesignDay
773,19.87766832251992
2050,11467.561730229627
1,RUNPERIOD 1,  33.63, -84.43,  -5.00, 308.00
2,1, 7, 1, 0, 1, 0.00,60.00,Monday
773,17.979981784011764
2050,5427.686456260233
2,1, 7, 1, 0, 2, 0.00,60.00,Monday
773,17.975539927469087
2050,6374.476996128926
2,1, 7, 1, 0, 3, 0.00,60.00,Monday
773,17.985473219109435
2050,5599.056572571932
2,1, 7, 1, 0, 4, 0.00,60.00,Monday
773,17.987283931838719
2050,5405.793612220605
2,1, 7, 1, 0, 5, 0.00,60.00,Monday
773,17.98935930765297
2050,5957.148031360431
2,1, 7, 1, 0, 6, 0.00,60.00,Monday
773,17.966577416256454
2050,6453.195490263908
2,1, 7, 1, 0, 7, 0.00,60.00,Monday
773,18.002526868617815
2050,13934.300135338804
2,1, 7, 1, 0, 8, 0.00,60.00,Monday
773,19.2120858699682
2050,18919.78982365246
2,1, 7, 1, 0, 9, 0.00,60.00,Monday
773,18.501286428623268
2050,15524.795527870963
2,1, 7, 1, 0,10, 0.00,60.00,Monday
773,19.24712557879305
2050,3130.867470143491
2,1, 7, 1, 0,11, 0.00,60.00,Monday
773,19.53636046752997
2050,20166.86362510281
2,1, 7, 1, 0,12, 0.00,60.00,Monday
773,20.24179299162567
2050,8065.161777760848
2,1, 7, 1, 0,13, 0.00,60.00,Monday
773,22.84672560727462
2050,21324.57366324025
2,1, 7, 1, 0,14, 0.00,60.00,Monday
773,20.92519727630837
2050,17939.02893446468
2,1, 7, 1, 0,15, 0.00,60.00,Monday
773,21.214611639041828
2050,1900.4361486848832
2,1, 7, 1, 0,16, 0.00,60.00,Monday
773,21.181679350219445
2050,20798.216917928657
2,1, 7, 1, 0,17, 0.00,60.00,Monday
773,20.3060898537808
2050,17812.558663245916
2,1, 7, 1, 0,18, 0.00,60.00,Monday
773,20.747056097972555
2050,5199.09814473808
2,1, 7, 1, 0,19, 0.00,60.00,Monday
773,19.20444951155894
2050,18655.170708493457
2,1, 7, 1, 0,20, 0.00,60.00,Monday
773,18.535983059575508
2050,2100.8807867187308
2,1, 7, 1, 0,21, 0.00,60.00,Monday
773,18.12292647182921
2050,9946.547376857356
2,1, 7, 1, 0,22, 0.00,60.00,Monday
773,18.010183488580667
2050,6649.824953830142
2,1, 7, 1, 0,23, 0.00,60.00,Monday
773,17.9884369579627
2050,6897.104469355053
2,1, 7, 1, 0,24, 0.00,60.00,Monday
773,17.98682000903622
2050,5576.1279018394629
2,2, 7, 2, 0, 1, 0.00,60.00,Tuesday
773,17.993593635152665
2050,4952.730134459464
2,2, 7, 2, 0, 2, 0.00,60.00,Tuesday
773,17.994895526692905
2050,5481.655625530042
2,2, 7, 2, 0, 3, 0.00,60.00,Tuesday
773,17.991678814360389
2050,5041.435864001291
2,2, 7, 2, 0, 4, 0.00,60.00,Tuesday
773,17.987817065234105
2050,4968.57215376952
2,2, 7, 2, 0, 5, 0.00,60.00,Tuesday
773,17.98942045737425
2050,4990.636054320293
2,2, 7, 2, 0, 6, 0.00,60.00,Tuesday
773,17.991430126543159
2050,5381.258055857138
2,2, 7, 2, 0, 7, 0.00,60.00,Tuesday
773,18.01151668571185
2050,10067.316449038486
2,2, 7, 2, 0, 8, 0.00,60.00,Tuesday
773,18.930656769407066
2050,12071.686343000778
2,2, 7, 2, 0, 9, 0.00,60.00,Tuesday
773,19.173617811404385
2050,10381.988753639547
2,2, 7, 2, 0,10, 0.00,60.00,Tuesday
773,19.54348810585846
2050,11233.145593309335
2,2, 7, 2, 0,11, 0.00,60.00,Tuesday
773,19.900144924916519
2050,12035.134449254878
2,2, 7, 2, 0,12, 0.00,60.00,Tuesday
773,20.34528622327025
2050,13241.70619275817
2,2, 7, 2, 0,13, 0.00,60.00,Tuesday
773,22.58141931111313
2050,20225.78960238542
2,2, 7, 2, 0,14, 0.00,60.00,Tuesday
773,21.486392452977616
2050,13314.688822291913
2,2, 7, 2, 0,15, 0.00,60.00,Tuesday
773,21.545366310608537
2050,15050.962343524214
2,2, 7, 2, 0,16, 0.00,60.00,Tuesday
773,21.68413663947201
2050,15494.733060536095
2,2, 7, 2, 0,17, 0.00,60.00,Tuesday
773,21.633345589120329
2050,15109.304787725945
2,2, 7, 2, 0,18, 0.00,60.00,Tuesday
773,23.07374594729956
2050,19757.455311280908
2,2, 7, 2, 0,19, 0.00,60.00,Tuesday
773,20.735491797451688
2050,9345.26200102478
2,2, 7, 2, 0,20, 0.00,60.00,Tuesday
773,19.627205977956394
2050,8857.753806009421
2,2, 7, 2, 0,21, 0.00,60.00,Tuesday
773,19.097525765233706
2050,8846.908498826106
2,2, 7, 2, 0,22, 0.00,60.00,Tuesday
773,18.735815856860204
2050,8529.759602608061
2,2, 7, 2, 0,23, 0.00,60.00,Tuesday
773,18.507584799140184
2050,8280.887305404509
2,2, 7, 2, 0,24, 0.00,60.00,Tuesday
773,18.271703826265797
2050,7795.668206429496
End of Data
 Number of Records Written=         192
