Program Version,EnergyPlus, Version 9.4.0-998c4b761e, YMD=2021.07.15 14:54
1,5,Environment Title[],Latitude[deg],Longitude[deg],Time Zone[],Elevation[m]
2,8,Day of Simulation[],Month[],Day of Month[],DST Indicator[1=yes 0=no],Hour[],StartMinute[],EndMinute[],DayType
3,5,Cumulative Day of Simulation[],Month[],Day of Month[],DST Indicator[1=yes 0=no],DayType  ! When Daily Report Variables Requested
4,2,Cumulative Days of Simulation[],Month[]  ! When Monthly Report Variables Requested
5,1,Cumulative Days of Simulation[] ! When Run Period Report Variables Requested
6,1,Calendar Year of Simulation[] ! When Annual Report Variables Requested
7,1,Environment,Site Outdoor Air Drybulb Temperature [C] !Hourly
773,1,PERIMETER_BOT_ZN_1,Zone Mean Air Temperature [C] !Hourly
2050,1,PERI1_TOP_LOTEMP,Zone Radiant HVAC Cooling Rate [W] !Hourly
2053,1,PERI1_TOP_LOTEMP,Zone Radiant HVAC Mass Flow Rate [kg/s] !Hourly
2054,1,PERI1_TOP_LOTEMP,Zone Radiant HVAC Injection Mass Flow Rate [kg/s] !Hourly
2055,1,PERI1_TOP_LOTEMP,Zone Radiant HVAC Recirculation Mass Flow Rate [kg/s] !Hourly
2056,1,PERI1_TOP_LOTEMP,Zone Radiant HVAC Inlet Temperature [C] !Hourly
2057,1,PERI1_TOP_LOTEMP,Zone Radiant HVAC Outlet Temperature [C] !Hourly
2063,1,PERI2_TOP_LOTEMP,Zone Radiant HVAC Outlet Temperature [C] !Hourly
2285,1,PERI1_TOP_LOTEMP_CHW_INLET,System Node Temperature [C] !Hourly
2286,1,PERI1_TOP_LOTEMP_CHW_OUTLET,System Node Temperature [C] !Hourly
End of Data Dictionary
1,ATLANTA-HARTSFIELD.JACKSON.INTL.AP_GA_USA ANN HTG 99.6% CONDNS DB,  33.63, -84.43,  -5.00, 308.00
2,1, 1,21, 0, 1, 0.00,60.00,WinterDesignDay
7,-6.300000000000007
773,16.062705341300128
2050,0.0
2053,0.27529600000000006
2054,0.035096695116355557
2055,0.24019930488364447
2056,30.072521362308714
2057,29.183354729848614
2063,36.91855791952617
2285,12.200000000000009
2286,12.200000000000009
2,1, 1,21, 0, 2, 0.00,60.00,WinterDesignDay
7,-6.300000000000007
773,16.112952365353629
2050,0.0
2053,0.19664
2054,0.024751781625676936
2055,0.1718882183743231
2056,30.03348412379776
2057,29.407245936715204
2063,36.91755918572502
2285,12.200000000000009
2286,12.200000000000009
2,1, 1,21, 0, 3, 0.00,60.00,WinterDesignDay
7,-6.300000000000007
773,16.083392503635378
2050,0.0
2053,0.23596800000000005
2054,0.029920642112339605
2055,0.2060473578876604
2056,30.04908765595649
2057,29.29139784716186
2063,36.91667549517908
2285,12.200000000000009
2286,12.200000000000009
2,1, 1,21, 0, 4, 0.00,60.00,WinterDesignDay
7,-6.300000000000007
773,16.079734867955165
2050,0.0
2053,0.19664
2054,0.025192630537138273
2055,0.17144736946286175
2056,30.04337610603384
2057,29.404347014412605
2063,36.91588327476928
2285,12.200000000000009
2286,12.200000000000009
2,1, 1,21, 0, 5, 0.00,60.00,WinterDesignDay
7,-6.300000000000007
773,16.087735476950987
2050,0.0
2053,0.23596800000000005
2054,0.02995034765134965
2055,0.20601765234865036
2056,30.061536386689629
2057,29.303073275362867
2063,36.91516838443411
2285,12.200000000000009
2286,12.200000000000009
2,1, 1,21, 0, 6, 0.00,60.00,WinterDesignDay
7,-6.300000000000007
773,16.080553548116169
2050,0.0
2053,0.23596800000000005
2054,0.02998266891303784
2055,0.20598533108696213
2056,30.062575295212448
2057,29.30330004804197
2063,36.914520936381929
2285,12.200000000000009
2286,12.200000000000009
2,1, 1,21, 0, 7, 0.00,60.00,WinterDesignDay
7,-6.300000000000007
773,16.097537352327988
2050,0.0
2053,0.117984
2054,0.01613531543553984
2055,0.10184868456446016
2056,30.04411603249927
2057,29.631161412562233
2063,36.92340514429375
2285,12.200000000000009
2286,12.200000000000009
2,1, 1,21, 0, 8, 0.00,60.00,WinterDesignDay
7,-6.300000000000007
773,16.054561350309368
2050,0.0
2053,0.157312
2054,0.021464697659616194
2055,0.1358473023403838
2056,30.05583039898727
2057,29.506438255674504
2063,36.93701934856722
2285,12.200000000000009
2286,12.200000000000009
2,1, 1,21, 0, 9, 0.00,60.00,WinterDesignDay
7,-6.300000000000007
773,16.04874770130479
2050,0.0
2053,0.23596800000000005
2054,0.03176531126447644
2055,0.20420268873552359
2056,30.0824371116244
2057,29.271282909511308
2063,36.94343941584736
2285,12.200000000000009
2286,12.200000000000009
2,1, 1,21, 0,10, 0.00,60.00,WinterDesignDay
7,-6.300000000000007
773,16.075467548984944
2050,0.0
2053,0.157312
2054,0.02143981755597888
2055,0.1358721824440211
2056,30.046593216585923
2057,29.4980701531454
2063,36.94668604652152
2285,12.200000000000009
2286,12.200000000000009
2,1, 1,21, 0,11, 0.00,60.00,WinterDesignDay
7,-6.300000000000007
773,16.070871595069318
2050,0.0
2053,0.19664
2054,0.026335754943744326
2055,0.17030424505625567
2056,30.06426344276681
2057,29.392180514439855
2063,36.94859130553167
2285,12.200000000000009
2286,12.200000000000009
2,1, 1,21, 0,12, 0.00,60.00,WinterDesignDay
7,-6.300000000000007
773,16.05919483000258
2050,0.0
2053,0.157312
2054,0.02145844925929104
2055,0.13585355074070896
2056,30.06378473800409
2057,29.514875994682379
2063,36.94991336186819
2285,12.200000000000009
2286,12.200000000000009
2,1, 1,21, 0,13, 0.00,60.00,WinterDesignDay
7,-6.300000000000007
773,16.08462066010662
2050,0.0
2053,0.23596800000000005
2054,0.031153853162863875
2055,0.2048141468371361
2056,30.047603873875276
2057,29.25401820069307
2063,36.95095263806906
2285,12.200000000000009
2286,12.200000000000009
2,1, 1,21, 0,14, 0.00,60.00,WinterDesignDay
7,-6.300000000000007
773,16.072955581841105
2050,0.0
2053,0.157312
2054,0.02133932985950233
2055,0.13597267014049767
2056,30.02474102475604
2057,29.4788883266542
2063,36.951828119693249
2285,12.200000000000009
2286,12.200000000000009
2,1, 1,21, 0,15, 0.00,60.00,WinterDesignDay
7,-6.300000000000007
773,16.075877882730699
2050,0.0
2053,0.19664
2054,0.026311094285219776
2055,0.1703289057147802
2056,30.050621867794825
2057,29.379293340221435
2063,36.95259042480205
2285,12.200000000000009
2286,12.200000000000009
2,1, 1,21, 0,16, 0.00,60.00,WinterDesignDay
7,-6.300000000000007
773,16.081694471476636
2050,0.0
2053,0.157312
2054,0.02090277895542756
2055,0.13640922104457244
2056,30.045428843074249
2057,29.51245447879709
2063,36.95326327498996
2285,12.200000000000009
2286,12.200000000000009
2,1, 1,21, 0,17, 0.00,60.00,WinterDesignDay
7,-6.300000000000007
773,16.078612312325345
2050,0.0
2053,0.19664
2054,0.026239091592754107
2055,0.17040090840724587
2056,30.036633260546706
2057,29.367132741189065
2063,36.95386115792556
2285,12.200000000000009
2286,12.200000000000009
2,1, 1,21, 0,18, 0.00,60.00,WinterDesignDay
7,-6.300000000000007
773,16.081919338527795
2050,0.0
2053,0.19664
2054,0.026264124707088604
2055,0.1703758752929114
2056,30.044670631452573
2057,29.374595449978306
2063,36.95439360303854
2285,12.200000000000009
2286,12.200000000000009
2,1, 1,21, 0,19, 0.00,60.00,WinterDesignDay
7,-6.300000000000007
773,16.10527191061677
2050,0.0
2053,0.31462400000000009
2054,0.03973690562368732
2055,0.27488709437631267
2056,30.101672964774548
2057,29.09747226167069
2063,36.94537124263308
2285,12.200000000000009
2286,12.200000000000009
2,1, 1,21, 0,20, 0.00,60.00,WinterDesignDay
7,-6.300000000000007
773,16.089344892440015
2050,0.0
2053,0.23596800000000005
2054,0.02978456341525988
2055,0.20618343658474015
2056,30.04874875447837
2057,29.294897678862744
2063,36.93163497542459
2285,12.200000000000009
2286,12.200000000000009
2,1, 1,21, 0,21, 0.00,60.00,WinterDesignDay
7,-6.300000000000007
773,16.09286478273395
2050,0.0
2053,0.19664
2054,0.024636065424070005
2055,0.17200393457593003
2056,30.026028861095928
2057,29.402897460309594
2063,36.9251188029634
2285,12.200000000000009
2286,12.200000000000009
2,1, 1,21, 0,22, 0.00,60.00,WinterDesignDay
7,-6.300000000000007
773,16.068772224302326
2050,0.0
2053,0.23596800000000005
2054,0.03017495474088613
2055,0.20579304525911383
2056,30.024207129164286
2057,29.258713104276408
2063,36.92177938067127
2285,12.200000000000009
2286,12.200000000000009
2,1, 1,21, 0,23, 0.00,60.00,WinterDesignDay
7,-6.300000000000007
773,16.061225759696759
2050,0.0
2053,0.23596800000000005
2054,0.03020017959640107
2055,0.20576782040359893
2056,30.031176582615719
2057,29.265012269394434
2063,36.91977916916306
2285,12.200000000000009
2286,12.200000000000009
2,1, 1,21, 0,24, 0.00,60.00,WinterDesignDay
7,-6.300000000000007
773,16.09771649253503
2050,0.0
2053,0.19664
2054,0.024699995293785378
2055,0.17194000470621463
2056,30.02751173826479
2057,29.40265567718022
2063,36.91835955883508
2285,12.200000000000009
2286,12.200000000000009
1,ATLANTA-HARTSFIELD.JACKSON.INTL.AP_GA_USA ANN CLG .4% CONDNS DB=>MWB,  33.63, -84.43,  -5.00, 308.00
2,1, 7,21, 0, 1, 0.00,60.00,SummerDesignDay
7,26.32025
773,19.673806436316466
2050,11120.750200227
2053,2.3997551999999997
2054,0.576765085117906
2055,1.8229901148820936
2056,10.602494480673747
2057,11.708416150704922
2063,28.268070252394297
2285,6.88344961403727
2286,8.04307249573089
2,1, 7,21, 0, 2, 0.00,60.00,SummerDesignDay
7,25.84683333333334
773,19.515578887064046
2050,10855.738893306527
2053,2.3997551999999997
2054,0.5792583970562319
2055,1.820496802943768
2056,10.735056536478279
2057,11.814664732804723
2063,28.122409321310167
2285,7.119586882741276
2286,8.252898329423248
2,1, 7,21, 0, 3, 0.00,60.00,SummerDesignDay
7,25.515125
773,19.387557800423214
2050,10619.590673656252
2053,2.3997551999999997
2054,0.5773004000904363
2055,1.8224547999095638
2056,10.842085236286624
2057,11.898240774744825
2063,28.05889165019561
2285,7.284739011941208
2286,8.39459944690757
2,1, 7,21, 0, 4, 0.00,60.00,SummerDesignDay
7,25.230124999999995
773,19.279776034473348
2050,10407.208126348827
2053,2.3997551999999997
2054,0.5753446446652717
2055,1.8244105553347286
2056,10.932123503232408
2057,11.967183551965018
2063,27.712274904476108
2285,7.425962837837838
2286,8.514729167973757
2,1, 7,21, 0, 5, 0.00,60.00,SummerDesignDay
7,24.993416666666673
773,19.18715461923942
2050,10219.151685989507
2053,2.3997551999999997
2054,0.5729593368204055
2055,1.8267958631795943
2056,11.009524986022046
2057,12.025904222162066
2063,27.946947790209906
2285,7.544027675604871
2286,8.614114383737958
2,1, 7,21, 0, 6, 0.00,60.00,SummerDesignDay
7,24.996583333333335
773,19.117032495334148
2050,10095.94342253824
2053,2.3997551999999997
2054,0.5607928885049929
2055,1.8389623114950069
2056,11.068562220328824
2057,12.072704377048899
2063,27.779031133479319
2285,7.545573915632699
2286,8.603424452504122
2,1, 7,21, 0, 7, 0.00,60.00,SummerDesignDay
7,25.42804166666666
773,19.437010196424965
2050,11275.636620114308
2053,2.3997551999999997
2054,0.6139889138615823
2055,1.785766286138418
2056,10.808063936788712
2057,11.929454360587238
2063,30.02552449256041
2285,7.335703317964299
2286,8.510798115000858
2,1, 7,21, 0, 8, 0.00,60.00,SummerDesignDay
7,26.575958333333334
773,19.611421410171194
2050,11423.502287407355
2053,2.3997551999999997
2054,0.5763575334171913
2055,1.8233976665828083
2056,10.66021268603002
2057,11.796260672984254
2063,30.02552449256041
2285,6.840959799294428
2286,8.03070988555583
2,1, 7,21, 0, 9, 0.00,60.00,SummerDesignDay
7,28.287541666666664
773,19.868156780135796
2050,12109.1858741778
2053,2.3997551999999997
2054,0.6098025198175281
2055,1.7899526801824706
2056,10.447223371036842
2057,11.651387795465097
2063,30.02552449256041
2285,6.699999999999995
2286,7.957863248298649
2,1, 7,21, 0,10, 0.00,60.00,SummerDesignDay
7,29.995958333333328
773,20.2222263467405
2050,13114.741018902198
2053,2.3997551999999997
2054,0.6851666452687709
2055,1.7145885547312292
2056,10.15437735193075
2057,11.458426144436148
2063,30.02552449256041
2285,6.699999999999993
2286,8.057743106651979
2,1, 7,21, 0,11, 0.00,60.00,SummerDesignDay
7,31.514374999999995
773,20.770547330264397
2050,14739.408252527579
2053,2.3997551999999997
2054,0.8174022140506329
2055,1.5823529859493662
2056,9.699732598897045
2057,11.165115626530051
2063,30.02552449256041
2285,6.699999999999993
2286,8.219069590378185
2,1, 7,21, 0,12, 0.00,60.00,SummerDesignDay
7,32.697916666666667
773,21.390362641614286
2050,16360.845977580047
2053,2.3997551999999997
2054,0.9822996474047318
2055,1.4174555525952684
2056,9.1830476051879
2057,10.809353044606894
2063,30.02552449256041
2285,6.699999999999993
2286,8.379982738476674
2,1, 7,21, 0,13, 0.00,60.00,SummerDesignDay
7,33.55133333333333
773,21.936902082141836
2050,17558.36723628564
2053,2.3997551999999997
2054,1.1457155063374057
2055,1.254039693662595
2056,8.72592347066337
2057,10.470999978099263
2063,30.02552449256041
2285,6.699999999999993
2286,8.498745613323769
2,1, 7,21, 0,14, 0.00,60.00,SummerDesignDay
7,34.16645833333333
773,22.324630124871367
2050,18163.739771315977
2053,2.3997551999999997
2054,1.2730214795407354
2055,1.1267337204592645
2056,8.400135052034349
2057,10.205182348317928
2063,30.02552449256041
2285,6.699999999999993
2286,8.558710564464527
2,1, 7,21, 0,15, 0.00,60.00,SummerDesignDay
7,34.40000000000004
773,22.49265886523075
2050,18089.093078639857
2053,2.3997551999999997
2054,1.324389626599994
2055,1.0753655734000063
2056,8.256816904681824
2057,10.05436029230408
2063,30.02552449256041
2285,6.699999999999993
2286,8.551204088117608
2,1, 7,21, 0,16, 0.00,60.00,SummerDesignDay
7,34.110250000000018
773,22.426622159572636
2050,17430.74453887088
2053,2.3997551999999997
2054,1.2828460858385887
2055,1.1169091141614114
2056,8.308790447008758
2057,10.04094230884308
2063,30.02552449256041
2285,6.699999999999993
2286,8.485813493436585
2,1, 7,21, 0,17, 0.00,60.00,SummerDesignDay
7,33.44366666666667
773,22.19582277269983
2050,16566.58571244285
2053,2.3997551999999997
2054,1.1841674820708326
2055,1.215587717929168
2056,8.499819313445073
2057,10.146201676835693
2063,30.02552449256041
2285,6.699999999999993
2286,8.400047417589427
2,1, 7,21, 0,18, 0.00,60.00,SummerDesignDay
7,32.58708333333333
773,21.90744368670999
2050,15771.194934276635
2053,2.3997551999999997
2054,1.079034909622729
2055,1.3207202903772706
2056,8.739407747934047
2057,10.306869635129802
2063,30.02552449256041
2285,6.699999999999993
2286,8.321131234650329
2,1, 7,21, 0,19, 0.00,60.00,SummerDesignDay
7,31.395624999999997
773,21.558024467846346
2050,14850.686019053685
2053,2.3997551999999997
2054,0.9652047918985558
2055,1.4345504081014442
2056,9.029636612810919
2057,10.505753991585126
2063,30.02552449256041
2285,6.699999999999993
2286,8.229791927884448
2,1, 7,21, 0,20, 0.00,60.00,SummerDesignDay
7,30.16379166666667
773,21.216069946180217
2050,14145.287026592361
2053,2.3997551999999997
2054,0.8713972900862949
2055,1.5283579099137055
2056,9.315599807050952
2057,10.721737161349548
2063,30.02552449256041
2285,6.699999999999993
2286,8.159817029495184
2,1, 7,21, 0,21, 0.00,60.00,SummerDesignDay
7,29.215374999999999
773,20.898293624567036
2050,13493.362954647799
2053,2.3997551999999997
2054,0.7932051209377897
2055,1.6065500790622105
2056,9.580697855449693
2057,10.922148362138188
2063,30.02552449256041
2285,6.699999999999993
2286,8.09513493486021
2,1, 7,21, 0,22, 0.00,60.00,SummerDesignDay
7,28.360375
773,20.631728024579098
2050,12991.770798420308
2053,2.3997551999999997
2054,0.7347226607261839
2055,1.6650325392738162
2056,9.803494882550572
2057,11.09517553185084
2063,30.02552449256041
2285,6.699999999999993
2286,8.045369072677087
2,1, 7,21, 0,23, 0.00,60.00,SummerDesignDay
7,27.60195833333334
773,20.12239778903364
2050,11568.058312379808
2053,2.3997551999999997
2054,0.6184945198519216
2055,1.7812606801480787
2056,10.223921998728015
2057,11.374201653287298
2063,30.02552449256041
2285,6.699999999999993
2286,7.903975035960895
2,1, 7,21, 0,24, 0.00,60.00,SummerDesignDay
7,26.936958333333334
773,19.877668322729343
2050,11467.561730615871
2053,2.3997551999999997
2054,0.5884246173072744
2055,1.8113305826927265
2056,10.432516976196708
2057,11.572872416266215
2063,29.55802121262809
2285,6.7027041521533159
2286,7.896758189991759
1,RUNPERIOD 1,  33.63, -84.43,  -5.00, 308.00
2,1, 7, 1, 0, 1, 0.00,60.00,Monday
7,21.118333333333337
773,17.982215832585888
2050,6560.876771253737
2053,0.55994288
2054,0.4831821944116708
2055,0.07676068558832919
2056,10.006682807185495
2057,10.659028184057663
2063,11.996992214215548
2285,9.572138558400289
2286,10.237012056376317
2,1, 7, 1, 0, 2, 0.00,60.00,Monday
7,22.098333333333334
773,17.978548765536144
2050,5814.442373758069
2053,0.4799510400000001
2054,0.36092327111737745
2055,0.11902776888262254
2056,10.0
2057,10.578127287379687
2063,11.996992214215548
2285,8.973459009211379
2286,9.562324686108659
2,1, 7, 1, 0, 3, 0.00,60.00,Monday
7,21.949166666666675
773,17.97417651407629
2050,6080.5326577704749
2053,0.4799510400000001
2054,0.3715331353319756
2055,0.10841790466802441
2056,10.0
2057,10.604584519940536
2063,11.996992214215548
2285,9.047154966886972
2286,9.662477876345096
2,1, 7, 1, 0, 4, 0.00,60.00,Monday
7,21.79833333333333
773,17.97301814299649
2050,5820.935195166095
2053,0.4399551200000001
2054,0.3504888062197642
2055,0.08946631378023587
2056,10.0
2057,10.578772865577346
2063,11.996992214215548
2285,9.11612546051767
2286,9.704741849819474
2,1, 7, 1, 0, 5, 0.00,60.00,Monday
7,21.700000000000025
773,17.96931265412998
2050,4801.417049229794
2053,0.35996328
2054,0.290579368326795
2055,0.06938391167320503
2056,10.0
2057,10.477402652879967
2063,11.996992214215548
2285,9.176948737050797
2286,9.662405182068959
2,1, 7, 1, 0, 6, 0.00,60.00,Monday
7,21.954166666666663
773,17.979449871951738
2050,7441.448862756313
2053,0.55994288
2054,0.43999129469441219
2055,0.11995158530558778
2056,10.0
2057,10.739899782069618
2063,12.707134161599111
2285,9.077848139357944
2286,9.830276042531417
2,1, 7, 1, 0, 7, 0.00,60.00,Monday
7,22.200000000000025
773,18.009294100276674
2050,12757.562236585816
2053,1.4398531200000007
2054,0.9774696392833612
2055,0.4623834807166389
2056,10.0
2057,11.268478449920178
2063,18.79826468719405
2285,8.929868311762464
2286,10.230561930235423
2,1, 7, 1, 0, 8, 0.00,60.00,Monday
7,23.31833333333333
773,19.231947647146037
2050,19196.38754420663
2053,2.3597592799999997
2054,2.3597592799999997
2055,0.0
2056,8.464477409535876
2057,10.372191623433626
2063,9.995130449315507
2285,8.393895347393567
2286,10.354353785595788
2,1, 7, 1, 0, 9, 0.00,60.00,Monday
7,25.823333333333335
773,18.462737736585124
2050,17242.75452160214
2053,2.3997551999999997
2054,2.3196266283318636
2055,0.08012857166813697
2056,7.295011960290898
2057,9.007905563409415
2063,9.715341556940178
2285,7.177778821195636
2286,8.944310618522089
2,1, 7, 1, 0,10, 0.00,60.00,Monday
7,27.759166666666667
773,18.559732222646905
2050,14935.48411135996
2053,2.3997551999999997
2054,2.0681182914581686
2055,0.33163690854183067
2056,7.0
2057,8.483541476582757
2063,9.715341556940178
2285,6.700000005584965
2286,8.237179676375666
2,1, 7, 1, 0,11, 0.00,60.00,Monday
7,29.164166666666668
773,18.891593566371339
2050,14477.836775201567
2053,2.3997551999999997
2054,2.059602774071567
2055,0.34015242592843278
2056,7.0
2057,8.43808337159089
2063,9.715341556940178
2285,6.699999999999993
2286,8.191721565798824
2,1, 7, 1, 0,12, 0.00,60.00,Monday
7,30.0
773,19.46077154393891
2050,14978.211645775458
2053,2.3997551999999997
2054,2.0690139552313289
2055,0.3307412447686707
2056,7.0
2057,8.487785602117949
2063,9.715341556940178
2285,6.699999999999993
2286,8.241423796325888
2,1, 7, 1, 0,13, 0.00,60.00,Monday
7,30.86416666666667
773,22.891751888257767
2050,1341.7684608568469
2053,0.8799102400000003
2054,0.06409303924053596
2055,0.815817200759464
2056,12.0
2057,12.133487853459496
2063,9.715341556940178
2285,6.699999999999993
2286,6.853186181267927
2,1, 7, 1, 0,14, 0.00,60.00,Monday
7,29.717500000000006
773,22.018425884148525
2050,9024.90498411548
2053,2.3997551999999997
2054,0.3676931943496121
2055,2.032062005650388
2056,12.0
2057,12.897856246551012
2063,9.715341556940178
2285,6.699999999999993
2286,7.651578958755836
2,1, 7, 1, 0,15, 0.00,60.00,Monday
7,28.613333333333335
773,22.014373268156914
2050,11275.626892725999
2053,2.3997551999999997
2054,0.43922575741759048
2055,1.9605294425824099
2056,12.0
2057,13.121772700901719
2063,9.715341556940178
2285,6.699999999999993
2286,7.875495413106547
2,1, 7, 1, 0,16, 0.00,60.00,Monday
7,28.0275
773,22.021222706391389
2050,11712.380772725588
2053,2.3997551999999997
2054,0.45244699791493028
2055,1.9473082020850706
2056,12.0
2057,13.165223817567572
2063,9.715341556940178
2285,6.699999999999993
2286,7.918946529772393
2,1, 7, 1, 0,17, 0.00,60.00,Monday
7,25.276666666666665
773,21.608814931445278
2050,11462.827009546078
2053,2.3997551999999997
2054,0.49989277747602559
2055,1.8998624225239745
2056,12.0
2057,13.14039658608808
2063,9.715341556940178
2285,7.3823564174495959
2286,8.576475715742502
2,1, 7, 1, 0,18, 0.00,60.00,Monday
7,23.594999999999997
773,21.22614176003301
2050,17867.46143865293
2053,2.3997551999999997
2054,1.2329967022608122
2055,1.1667584977391874
2056,10.0
2057,11.776553339063046
2063,9.715341556940178
2285,8.233382334380554
2286,10.063627621031552
2,1, 7, 1, 0,19, 0.00,60.00,Monday
7,23.604999999999995
773,19.689287280546357
2050,12997.982254294986
2053,2.3997551999999997
2054,1.0580549583493003
2055,1.3417002416506996
2056,10.0
2057,11.292383299901547
2063,14.898479576166969
2285,8.2384173912346
2286,9.584492638724111
2,1, 7, 1, 0,20, 0.00,60.00,Monday
7,21.917500000000005
773,18.68818200650114
2050,11409.446507757453
2053,2.3997551999999997
2054,1.4722024679465736
2055,0.9275527320534265
2056,10.000840031886567
2057,11.135276217682107
2063,28.38089010410578
2285,9.03786045854592
2286,10.225988591929424
2,1, 7, 1, 0,21, 0.00,60.00,Monday
7,20.304999999999994
773,18.075033944285705
2050,8567.698296613145
2053,1.7998164000000008
2054,1.7263208854448094
2055,0.07349551455519098
2056,10.009346312245118
2057,10.861231356175085
2063,28.08501588374037
2285,9.878150737132533
2286,10.77030474175347
2,1, 7, 1, 0,22, 0.00,60.00,Monday
7,20.294999999999996
773,17.993451177939855
2050,5800.1024390122079
2053,0.7599224800000002
2054,0.7243347634619842
2055,0.03558771653801591
2056,10.005061185247384
2057,10.581763306473578
2063,25.255814895856429
2285,9.855348088639744
2286,10.449052659935456
2,1, 7, 1, 0,23, 0.00,60.00,Monday
7,20.0
773,17.985021116088818
2050,6778.03090378803
2053,0.7599224800000002
2054,0.7599224800000002
2055,0.0
2056,10.072375254817417
2057,10.746325496575635
2063,11.98783261958783
2285,10.018892135220647
2286,10.709844827048388
2,1, 7, 1, 0,24, 0.00,60.00,Monday
7,20.0
773,17.98803775501083
2050,6075.844473332492
2053,0.5999388000000001
2054,0.5999388000000001
2055,0.0
2056,10.073511767377113
2057,10.677642856461132
2063,11.98783261958783
2285,10.019819819800489
2286,10.637373895781498
2,2, 7, 2, 0, 1, 0.00,60.00,Tuesday
7,20.0
773,17.99746958921173
2050,4990.771962090967
2053,0.9599020800000003
2054,0.3857714459695129
2055,0.5741306340304873
2056,11.836279496091575
2057,12.33279322680512
2063,11.98783261958783
2285,10.019819819819825
2286,10.537822603931776
2,2, 7, 2, 0, 2, 0.00,60.00,Tuesday
7,20.0
773,17.995189309159764
2050,5837.057599548161
2053,0.9998980000000003
2054,0.42879738757554189
2055,0.5711006124244581
2056,11.996565363855292
2057,12.57727278153263
2063,11.98783261958783
2285,10.019819819819825
2286,10.622911661513653
2,2, 7, 2, 0, 3, 0.00,60.00,Tuesday
7,19.440833333333335
773,17.99193682000806
2050,5333.633628415468
2053,0.7999184000000003
2054,0.39582457584283056
2055,0.4040938241571695
2056,11.996901084273427
2057,12.527524950135533
2063,11.98783261958783
2285,10.258784952536607
2286,10.80731636554459
2,2, 7, 2, 0, 4, 0.00,60.00,Tuesday
7,19.154166666666666
773,17.98710212844333
2050,4751.582262738952
2053,0.6399347200000001
2054,0.35205236394199249
2055,0.2878823560580075
2056,11.997359431697607
2057,12.470076995457614
2063,11.98783261958783
2285,10.45479319575245
2286,10.941836793797469
2,2, 7, 2, 0, 5, 0.00,60.00,Tuesday
7,19.399999999999996
773,17.985178121512847
2050,5070.010725022408
2053,0.6399347200000001
2054,0.348262611244311
2055,0.29167210875568896
2056,11.997745108063582
2057,12.502141981683307
2063,11.98783261958783
2285,10.319906510542062
2286,10.838629419257384
2,2, 7, 2, 0, 6, 0.00,60.00,Tuesday
7,19.399999999999996
773,17.990542772481068
2050,5600.87938822872
2053,0.6799306400000001
2054,0.37637089429810258
2055,0.3035597457018973
2056,11.995718640025725
2057,12.552929633870662
2063,11.98783261958783
2285,10.317117117429932
2286,10.889549521246446
2,2, 7, 2, 0, 7, 0.00,60.00,Tuesday
7,19.705
773,18.01297787017449
2050,10114.030392445233
2053,1.7998164000000008
2054,0.7915134273675211
2055,1.0083029726324789
2056,11.987839267896915
2057,12.994044105369808
2063,12.666594514629065
2285,10.174169361458205
2286,11.220666058123096
2,2, 7, 2, 0, 8, 0.00,60.00,Tuesday
7,21.118333333333337
773,18.936347416713614
2050,12031.617501851348
2053,2.3997551999999997
2054,1.017788006542887
2055,1.3819671934571132
2056,11.23836203665426
2057,12.435084439635104
2063,11.719388577720262
2285,9.483730846435224
2286,10.734164242006738
2,2, 7, 2, 0, 9, 0.00,60.00,Tuesday
7,23.62333333333333
773,19.18193444569976
2050,10398.722992720923
2053,2.3997551999999997
2054,0.6923199527424421
2055,1.707435247257558
2056,11.01527635475838
2057,12.049516081035675
2063,11.582537517460578
2285,8.247549536458142
2286,9.335496823233616
2,2, 7, 2, 0,10, 0.00,60.00,Tuesday
7,25.55916666666667
773,19.5509167531149
2050,11250.717783805536
2053,2.3997551999999997
2054,0.6176317687864966
2055,1.782123431213503
2056,10.71225329039004
2057,11.83113470803437
2063,11.582537517460578
2285,7.274498035090321
2286,8.447082352426142
2,2, 7, 2, 0,11, 0.00,60.00,Tuesday
7,26.65916666666666
773,19.906473994820609
2050,12050.471797418353
2053,2.3997551999999997
2054,0.6219090728658213
2055,1.7778461271341782
2056,10.416349787419785
2057,11.61466479189731
2063,11.582537517460578
2285,6.783661685662575
2286,8.035675039299959
2,2, 7, 2, 0,12, 0.00,60.00,Tuesday
7,28.06416666666667
773,20.351481985125237
2050,13258.270319875186
2053,2.3997551999999997
2054,0.7062894584023124
2055,1.6934657415976882
2056,10.048248890786465
2057,11.366526114750057
2063,11.582537517460578
2285,6.699999999999993
2286,8.071969812262605
2,2, 7, 2, 0,13, 0.00,60.00,Tuesday
7,29.459166666666666
773,22.586170917008177
2050,20236.995722702482
2053,2.3997551999999997
2054,1.4201415918177343
2055,0.9796136081822655
2056,8.210639419652465
2057,10.221586412531743
2063,11.582537517460578
2285,6.699999999999993
2286,8.76460686703955
2,2, 7, 2, 0,14, 0.00,60.00,Tuesday
7,29.440833333333328
773,21.49124946910269
2050,13327.92890218064
2053,2.3997551999999997
2054,0.9001801583103534
2055,1.4995750416896468
2056,9.069406905370118
2057,10.394175721992049
2063,11.582537517460578
2285,6.699999999999993
2286,8.078444078959877
2,2, 7, 2, 0,15, 0.00,60.00,Tuesday
7,29.76416666666667
773,21.549613932739008
2050,15061.524066728183
2053,2.3997551999999997
2054,0.9687862822387064
2055,1.4309689177612939
2056,9.044761858189514
2057,10.541843806673809
2063,11.582537517460578
2285,6.699999999999993
2286,8.250756768630094
2,2, 7, 2, 0,16, 0.00,60.00,Tuesday
7,30.854166666666669
773,21.687792232294734
2050,15503.657609630292
2053,2.3997551999999997
2054,1.015533572184146
2055,1.3842216278158535
2056,8.927232118209597
2057,10.468201333801174
2063,11.582537517460578
2285,6.699999999999993
2286,8.29464192916738
2,2, 7, 2, 0,17, 0.00,60.00,Tuesday
7,30.84583333333334
773,21.636496730272208
2050,15116.995071722607
2053,2.3997551999999997
2054,0.9904807710955725
2055,1.4092744289044273
2056,8.968058260131162
2057,10.470615934127759
2063,11.582537517460578
2285,6.699999999999993
2286,8.256231119322982
2,2, 7, 2, 0,18, 0.00,60.00,Tuesday
7,30.59999999999997
773,23.076051569131985
2050,19762.75528636344
2053,2.3997551999999997
2054,1.59112470180253
2055,0.8086304981974704
2056,7.7908870951522239
2057,9.754434116501275
2063,11.582537517460578
2285,6.699999999999993
2286,8.71719937643868
2,2, 7, 2, 0,19, 0.00,60.00,Tuesday
7,29.430833333333337
773,20.73771738556758
2050,9351.228808686981
2053,2.3997551999999997
2054,0.6174554126871755
2055,1.7822997873128244
2056,9.67979789745822
2057,10.609467417278845
2063,14.043185995882796
2285,6.699999999999993
2286,7.683355703501684
2,2, 7, 2, 0,20, 0.00,60.00,Tuesday
7,26.927500000000003
773,19.629134286805987
2050,8862.57886684941
2053,2.3997551999999997
2054,0.47753215901516968
2055,1.9222230409848303
2056,10.62923117367365
2057,11.510592094450232
2063,29.936039569476184
2285,6.806747806659074
2286,7.7418103503720598
2,2, 7, 2, 0,21, 0.00,60.00,Tuesday
7,24.430833333333334
773,19.098842027521024
2050,8849.676418739558
2053,2.3997551999999997
2054,0.5409833095598452
2055,1.858771890440155
2056,11.07797403064297
2057,11.958164529205194
2063,29.768400222496614
2285,7.8053358271082369
2286,8.739234850652262
2,2, 7, 2, 0,22, 0.00,60.00,Tuesday
7,23.045833333333339
773,18.736725345153777
2050,8531.834898782965
2053,2.3997551999999997
2054,0.5813612982556334
2055,1.818393901744366
2056,11.38256822577437
2057,12.231220526783102
2063,25.81196801221524
2285,8.506349810575627
2286,9.408715322485455
2,2, 7, 2, 0,23, 0.00,60.00,Tuesday
7,22.494999999999999
773,18.50825717094404
2050,8282.691789115483
2053,2.3997551999999997
2054,0.5820269781381925
2055,1.8177282218618074
2056,11.573162945739679
2057,12.397078047167618
2063,13.086781902338333
2285,8.778611613793512
2286,9.656242858723513
2,2, 7, 2, 0,24, 0.00,60.00,Tuesday
7,21.640833333333334
773,18.27244869863813
2050,7798.040375795989
2053,2.3997551999999997
2054,0.5949518658654801
2055,1.8048033341345189
2056,11.769692552733519
2057,12.545440916828989
2063,11.99601857013666
2285,9.197750261159757
2286,10.027217793012126
End of Data
 Number of Records Written=        1056
