Program Version,EnergyPlus, Version 9.5.0-de239b2e5f, YMD=2021.07.16 03:33
1,5,Environment Title[],Latitude[deg],Longitude[deg],Time Zone[],Elevation[m]
2,8,Day of Simulation[],Month[],Day of Month[],DST Indicator[1=yes 0=no],Hour[],StartMinute[],EndMinute[],DayType
3,5,Cumulative Day of Simulation[],Month[],Day of Month[],DST Indicator[1=yes 0=no],DayType  ! When Daily Report Variables Requested
4,2,Cumulative Days of Simulation[],Month[]  ! When Monthly Report Variables Requested
5,1,Cumulative Days of Simulation[] ! When Run Period Report Variables Requested
6,1,Calendar Year of Simulation[] ! When Annual Report Variables Requested
651,1,PERIMETER_BOT_ZN_1,Zone Mean Air Temperature [C] !Hourly
1716,1,PERI1_TOP_LOTEMP,Zone Radiant HVAC Cooling Rate [W] !Hourly
End of Data Dictionary
1,ATLANTA-HARTSFIELD.JACKSON.INTL.AP_GA_USA ANN HTG 99.6% CONDNS DB,  33.63, -84.43,  -5.00, 308.00
2,1, 1,21, 0, 1, 0.00,60.00,WinterDesignDay
651,16.051292496802814
1716,0.0
2,1, 1,21, 0, 2, 0.00,60.00,WinterDesignDay
651,16.04967177145685
1716,0.0
2,1, 1,21, 0, 3, 0.00,60.00,WinterDesignDay
651,16.049873333433469
1716,0.0
2,1, 1,21, 0, 4, 0.00,60.00,WinterDesignDay
651,16.049194020368377
1716,0.0
2,1, 1,21, 0, 5, 0.00,60.00,WinterDesignDay
651,16.049710385137435
1716,0.0
2,1, 1,21, 0, 6, 0.00,60.00,WinterDesignDay
651,16.04868260858905
1716,0.0
2,1, 1,21, 0, 7, 0.00,60.00,WinterDesignDay
651,16.092909520184798
1716,0.0
2,1, 1,21, 0, 8, 0.00,60.00,WinterDesignDay
651,16.05122271762102
1716,0.0
2,1, 1,21, 0, 9, 0.00,60.00,WinterDesignDay
651,16.058710730765893
1716,0.0
2,1, 1,21, 0,10, 0.00,60.00,WinterDesignDay
651,16.053794298409128
1716,0.0
2,1, 1,21, 0,11, 0.00,60.00,WinterDesignDay
651,16.04848095332204
1716,0.0
2,1, 1,21, 0,12, 0.00,60.00,WinterDesignDay
651,16.053891404911579
1716,0.0
2,1, 1,21, 0,13, 0.00,60.00,WinterDesignDay
651,16.057687116175669
1716,0.0
2,1, 1,21, 0,14, 0.00,60.00,WinterDesignDay
651,16.052163085869624
1716,0.0
2,1, 1,21, 0,15, 0.00,60.00,WinterDesignDay
651,16.051593652584953
1716,0.0
2,1, 1,21, 0,16, 0.00,60.00,WinterDesignDay
651,16.05849190266736
1716,0.0
2,1, 1,21, 0,17, 0.00,60.00,WinterDesignDay
651,16.05733374460486
1716,0.0
2,1, 1,21, 0,18, 0.00,60.00,WinterDesignDay
651,16.052558928224778
1716,0.0
2,1, 1,21, 0,19, 0.00,60.00,WinterDesignDay
651,16.041961590605493
1716,0.0
2,1, 1,21, 0,20, 0.00,60.00,WinterDesignDay
651,16.045137506644087
1716,0.0
2,1, 1,21, 0,21, 0.00,60.00,WinterDesignDay
651,16.037761904783687
1716,0.0
2,1, 1,21, 0,22, 0.00,60.00,WinterDesignDay
651,16.05198722233478
1716,0.0
2,1, 1,21, 0,23, 0.00,60.00,WinterDesignDay
651,16.05050458968803
1716,0.0
2,1, 1,21, 0,24, 0.00,60.00,WinterDesignDay
651,16.052974156462726
1716,0.0
1,ATLANTA-HARTSFIELD.JACKSON.INTL.AP_GA_USA ANN CLG .4% CONDNS DB=>MWB,  33.63, -84.43,  -5.00, 308.00
2,1, 7,21, 0, 1, 0.00,60.00,SummerDesignDay
651,19.176554788818355
1716,10105.154793111958
2,1, 7,21, 0, 2, 0.00,60.00,SummerDesignDay
651,19.078779819326635
1716,9960.953284930594
2,1, 7,21, 0, 3, 0.00,60.00,SummerDesignDay
651,19.00223818370373
1716,9819.709348772618
2,1, 7,21, 0, 4, 0.00,60.00,SummerDesignDay
651,18.93777406017059
1716,9686.964646621094
2,1, 7,21, 0, 5, 0.00,60.00,SummerDesignDay
651,18.881969740132303
1716,9568.10996206773
2,1, 7,21, 0, 6, 0.00,60.00,SummerDesignDay
651,18.843794419616477
1716,9507.675405467333
2,1, 7,21, 0, 7, 0.00,60.00,SummerDesignDay
651,19.203685413897447
1716,10786.312991607787
2,1, 7,21, 0, 8, 0.00,60.00,SummerDesignDay
651,19.429060224547503
1716,11073.960223929316
2,1, 7,21, 0, 9, 0.00,60.00,SummerDesignDay
651,19.757522351101316
1716,11951.01155321825
2,1, 7,21, 0,10, 0.00,60.00,SummerDesignDay
651,20.151085455156076
1716,12994.166533567015
2,1, 7,21, 0,11, 0.00,60.00,SummerDesignDay
651,20.70195254316222
1716,14570.435910782655
2,1, 7,21, 0,12, 0.00,60.00,SummerDesignDay
651,21.291107564361665
1716,16062.22166768674
2,1, 7,21, 0,13, 0.00,60.00,SummerDesignDay
651,21.750254414662498
1716,16971.574555987212
2,1, 7,21, 0,14, 0.00,60.00,SummerDesignDay
651,22.00104812213498
1716,17194.38333135418
2,1, 7,21, 0,15, 0.00,60.00,SummerDesignDay
651,22.012920075916165
1716,16741.68351084403
2,1, 7,21, 0,16, 0.00,60.00,SummerDesignDay
651,21.797294646353099
1716,15769.36759854947
2,1, 7,21, 0,17, 0.00,60.00,SummerDesignDay
651,21.45603780060261
1716,14735.461132409
2,1, 7,21, 0,18, 0.00,60.00,SummerDesignDay
651,21.11091153457353
1716,13905.4001158526
2,1, 7,21, 0,19, 0.00,60.00,SummerDesignDay
651,20.749793010795924
1716,13036.847828687978
2,1, 7,21, 0,20, 0.00,60.00,SummerDesignDay
651,20.433922122835644
1716,12455.22340325127
2,1, 7,21, 0,21, 0.00,60.00,SummerDesignDay
651,20.162169753170614
1716,11932.062614765231
2,1, 7,21, 0,22, 0.00,60.00,SummerDesignDay
651,19.956572171953547
1716,11581.994008523283
2,1, 7,21, 0,23, 0.00,60.00,SummerDesignDay
651,19.494505565498398
1716,10238.756204785632
2,1, 7,21, 0,24, 0.00,60.00,SummerDesignDay
651,19.31454011011184
1716,10310.368510131446
1,RUNPERIOD 1,  33.63, -84.43,  -5.00, 308.00
2,1, 7, 1, 0, 1, 0.00,60.00,Monday
651,17.990990080792327
1716,5384.7884918236909
2,1, 7, 1, 0, 2, 0.00,60.00,Monday
651,17.990704225158674
1716,5612.426527372804
2,1, 7, 1, 0, 3, 0.00,60.00,Monday
651,17.99071103027727
1716,4916.348568666746
2,1, 7, 1, 0, 4, 0.00,60.00,Monday
651,17.99035608739535
1716,5349.241677166911
2,1, 7, 1, 0, 5, 0.00,60.00,Monday
651,17.991165685445574
1716,6251.454998876829
2,1, 7, 1, 0, 6, 0.00,60.00,Monday
651,17.994992367502019
1716,6473.6741164001209
2,1, 7, 1, 0, 7, 0.00,60.00,Monday
651,18.143857553356818
1716,10786.717415232919
2,1, 7, 1, 0, 8, 0.00,60.00,Monday
651,19.578136890510569
1716,13129.434025389139
2,1, 7, 1, 0, 9, 0.00,60.00,Monday
651,19.39614652453959
1716,9956.074575031926
2,1, 7, 1, 0,10, 0.00,60.00,Monday
651,19.887241081942834
1716,12030.162780423529
2,1, 7, 1, 0,11, 0.00,60.00,Monday
651,20.382825268254157
1716,13252.789205205987
2,1, 7, 1, 0,12, 0.00,60.00,Monday
651,20.967551552290045
1716,14756.333058900684
2,1, 7, 1, 0,13, 0.00,60.00,Monday
651,23.201671848069119
1716,21570.082163361778
2,1, 7, 1, 0,14, 0.00,60.00,Monday
651,21.38440580604976
1716,11704.858230792806
2,1, 7, 1, 0,15, 0.00,60.00,Monday
651,21.083421644250455
1716,13400.002146668961
2,1, 7, 1, 0,16, 0.00,60.00,Monday
651,20.857340687773534
1716,12942.512541151813
2,1, 7, 1, 0,17, 0.00,60.00,Monday
651,20.331367992136039
1716,11477.374378777145
2,1, 7, 1, 0,18, 0.00,60.00,Monday
651,20.486522936968574
1716,12501.428818673949
2,1, 7, 1, 0,19, 0.00,60.00,Monday
651,19.063919450166826
1716,7310.239879336992
2,1, 7, 1, 0,20, 0.00,60.00,Monday
651,18.31644576550048
1716,6811.414817994677
2,1, 7, 1, 0,21, 0.00,60.00,Monday
651,18.002911541412236
1716,4432.077696251872
2,1, 7, 1, 0,22, 0.00,60.00,Monday
651,17.99691552217021
1716,5589.368140314122
2,1, 7, 1, 0,23, 0.00,60.00,Monday
651,17.99537126246656
1716,5907.837731433257
2,1, 7, 1, 0,24, 0.00,60.00,Monday
651,17.992417636748866
1716,5603.97653855506
2,2, 7, 2, 0, 1, 0.00,60.00,Tuesday
651,17.9861489093763
1716,4590.017807002344
2,2, 7, 2, 0, 2, 0.00,60.00,Tuesday
651,17.99069237752304
1716,4822.2478394172899
2,2, 7, 2, 0, 3, 0.00,60.00,Tuesday
651,17.986181942374537
1716,5342.785916702467
2,2, 7, 2, 0, 4, 0.00,60.00,Tuesday
651,17.98311507176332
1716,4275.221910199858
2,2, 7, 2, 0, 5, 0.00,60.00,Tuesday
651,17.98372887412006
1716,5198.873539277718
2,2, 7, 2, 0, 6, 0.00,60.00,Tuesday
651,17.985012472933659
1716,4785.884584294407
2,2, 7, 2, 0, 7, 0.00,60.00,Tuesday
651,18.01008219793429
1716,10508.712199388128
2,2, 7, 2, 0, 8, 0.00,60.00,Tuesday
651,18.919178811586574
1716,12389.066123817447
2,2, 7, 2, 0, 9, 0.00,60.00,Tuesday
651,19.192146088780697
1716,10545.186742903303
2,2, 7, 2, 0,10, 0.00,60.00,Tuesday
651,19.64183827535005
1716,11618.116593888097
2,2, 7, 2, 0,11, 0.00,60.00,Tuesday
651,20.123563831063526
1716,12783.826624822344
2,2, 7, 2, 0,12, 0.00,60.00,Tuesday
651,20.672109473198206
1716,14148.536927437643
2,2, 7, 2, 0,13, 0.00,60.00,Tuesday
651,22.77408354969921
1716,20526.724518379455
2,2, 7, 2, 0,14, 0.00,60.00,Tuesday
651,21.572389706957684
1716,13329.329962567554
2,2, 7, 2, 0,15, 0.00,60.00,Tuesday
651,21.449672132442577
1716,14551.07224411247
2,2, 7, 2, 0,16, 0.00,60.00,Tuesday
651,21.423224575289006
1716,14638.95437878458
2,2, 7, 2, 0,17, 0.00,60.00,Tuesday
651,21.252008567678876
1716,14053.903242323962
2,2, 7, 2, 0,18, 0.00,60.00,Tuesday
651,22.761593730666435
1716,19092.04006007409
2,2, 7, 2, 0,19, 0.00,60.00,Tuesday
651,20.17898451507057
1716,7699.150688345082
2,2, 7, 2, 0,20, 0.00,60.00,Tuesday
651,18.929641080158615
1716,7145.249292907893
2,2, 7, 2, 0,21, 0.00,60.00,Tuesday
651,18.380068254487367
1716,7340.054398862419
2,2, 7, 2, 0,22, 0.00,60.00,Tuesday
651,18.064225212537047
1716,7116.28662998465
2,2, 7, 2, 0,23, 0.00,60.00,Tuesday
651,18.001365886504425
1716,5469.757959957585
2,2, 7, 2, 0,24, 0.00,60.00,Tuesday
651,17.995144536173738
1716,5284.334441133936
End of Data
 Number of Records Written=         192
