Program Version,EnergyPlus, Version 9.4.0-998c4b761e, YMD=2021.07.16 00:27
1,5,Environment Title[],Latitude[deg],Longitude[deg],Time Zone[],Elevation[m]
2,8,Day of Simulation[],Month[],Day of Month[],DST Indicator[1=yes 0=no],Hour[],StartMinute[],EndMinute[],DayType
3,5,Cumulative Day of Simulation[],Month[],Day of Month[],DST Indicator[1=yes 0=no],DayType  ! When Daily Meters Requested
4,2,Cumulative Days of Simulation[],Month[]  ! When Monthly Meters Requested
5,1,Cumulative Days of Simulation[] ! When Run Period Meters Requested
6,1,Calendar Year of Simulation[] ! When Annual Meters Requested
59,1,Electricity:Facility [J] !Hourly
1716,1,ElectricityNet:Facility [J] !Hourly
95,1,InteriorLights:Electricity [J] !Hourly
512,1,InteriorEquipment:Electricity [J] !Hourly
End of Data Dictionary
1,ATLANTA-HARTSFIELD.JACKSON.INTL.AP_GA_USA ANN HTG 99.6% CONDNS DB,  33.63, -84.43,  -5.00, 308.00
2,1, 1,21, 0, 1, 0.00,60.00,WinterDesignDay
59,115919623.926708
95,0.0
512,0.0
1716,115919623.926708
2,1, 1,21, 0, 2, 0.00,60.00,WinterDesignDay
59,115955623.926708
95,0.0
512,0.0
1716,115955623.926708
2,1, 1,21, 0, 3, 0.00,60.00,WinterDesignDay
59,115919623.926708
95,0.0
512,0.0
1716,115919623.926708
2,1, 1,21, 0, 4, 0.00,60.00,WinterDesignDay
59,115919623.926708
95,0.0
512,0.0
1716,115919623.926708
2,1, 1,21, 0, 5, 0.00,60.00,WinterDesignDay
59,115919623.926708
95,0.0
512,0.0
1716,115919623.926708
2,1, 1,21, 0, 6, 0.00,60.00,WinterDesignDay
59,115919623.926708
95,0.0
512,0.0
1716,115919623.926708
2,1, 1,21, 0, 7, 0.00,60.00,WinterDesignDay
59,126063883.92670787
95,0.0
512,0.0
1716,126063883.92670787
2,1, 1,21, 0, 8, 0.00,60.00,WinterDesignDay
59,121423033.92670787
95,0.0
512,0.0
1716,121423033.92670787
2,1, 1,21, 0, 9, 0.00,60.00,WinterDesignDay
59,107248483.92670802
95,0.0
512,0.0
1716,107248483.92670802
2,1, 1,21, 0,10, 0.00,60.00,WinterDesignDay
59,107284483.92670802
95,0.0
512,0.0
1716,107284483.92670802
2,1, 1,21, 0,11, 0.00,60.00,WinterDesignDay
59,107284483.92670802
95,0.0
512,0.0
1716,107284483.92670802
2,1, 1,21, 0,12, 0.00,60.00,WinterDesignDay
59,107248483.92670802
95,0.0
512,0.0
1716,107248483.92670802
2,1, 1,21, 0,13, 0.00,60.00,WinterDesignDay
59,107284483.92670802
95,0.0
512,0.0
1716,107284483.92670802
2,1, 1,21, 0,14, 0.00,60.00,WinterDesignDay
59,107284483.92670802
95,0.0
512,0.0
1716,107284483.92670802
2,1, 1,21, 0,15, 0.00,60.00,WinterDesignDay
59,107284483.92670802
95,0.0
512,0.0
1716,107284483.92670802
2,1, 1,21, 0,16, 0.00,60.00,WinterDesignDay
59,107248483.92670802
95,0.0
512,0.0
1716,107248483.92670802
2,1, 1,21, 0,17, 0.00,60.00,WinterDesignDay
59,107284483.92670802
95,0.0
512,0.0
1716,107284483.92670802
2,1, 1,21, 0,18, 0.00,60.00,WinterDesignDay
59,109798003.92670802
95,0.0
512,0.0
1716,109798003.92670802
2,1, 1,21, 0,19, 0.00,60.00,WinterDesignDay
59,126423883.92670787
95,0.0
512,0.0
1716,126423883.92670787
2,1, 1,21, 0,20, 0.00,60.00,WinterDesignDay
59,118429003.926708
95,0.0
512,0.0
1716,118429003.92670787
2,1, 1,21, 0,21, 0.00,60.00,WinterDesignDay
59,118465003.926708
95,0.0
512,0.0
1716,118465003.92670787
2,1, 1,21, 0,22, 0.00,60.00,WinterDesignDay
59,118501003.926708
95,0.0
512,0.0
1716,118501003.92670787
2,1, 1,21, 0,23, 0.00,60.00,WinterDesignDay
59,118501003.926708
95,0.0
512,0.0
1716,118501003.92670787
2,1, 1,21, 0,24, 0.00,60.00,WinterDesignDay
59,118501003.926708
95,0.0
512,0.0
1716,118501003.92670787
1,ATLANTA-HARTSFIELD.JACKSON.INTL.AP_GA_USA ANN CLG .4% CONDNS DB=>MWB,  33.63, -84.43,  -5.00, 308.00
2,1, 7,21, 0, 1, 0.00,60.00,SummerDesignDay
59,523760640.6234784
95,152517470.7542746
512,224813060.55296675
1716,523760640.6234784
2,1, 7,21, 0, 2, 0.00,60.00,SummerDesignDay
59,523820640.6234784
95,152517470.7542746
512,224813060.55296675
1716,523820640.6234784
2,1, 7,21, 0, 3, 0.00,60.00,SummerDesignDay
59,523910640.6234784
95,152517470.7542746
512,224813060.55296675
1716,523910640.6234784
2,1, 7,21, 0, 4, 0.00,60.00,SummerDesignDay
59,524036640.6234784
95,152517470.7542746
512,224813060.55296675
1716,524036640.6234784
2,1, 7,21, 0, 5, 0.00,60.00,SummerDesignDay
59,524048640.6234784
95,152517470.7542746
512,224813060.55296675
1716,524048640.6234784
2,1, 7,21, 0, 6, 0.00,60.00,SummerDesignDay
59,521844236.3818794
95,152399851.51267544
512,224813060.55296675
1716,521844236.3818794
2,1, 7,21, 0, 7, 0.00,60.00,SummerDesignDay
59,491273199.54922
95,129457169.68001552
512,224813060.55296675
1716,491273199.5492201
2,1, 7,21, 0, 8, 0.00,60.00,SummerDesignDay
59,482114337.952093
95,120340308.08288898
512,224813060.55296675
1716,482114337.95209297
2,1, 7,21, 0, 9, 0.00,60.00,SummerDesignDay
59,474814278.4997982
95,119991185.40467149
512,224813060.55296675
1716,474814278.4997982
2,1, 7,21, 0,10, 0.00,60.00,SummerDesignDay
59,463301205.89002946
95,119991185.40467149
512,224813060.55296675
1716,463301205.89002946
2,1, 7,21, 0,11, 0.00,60.00,SummerDesignDay
59,463301205.89002946
95,119991185.40467149
512,224813060.55296675
1716,463301205.89002946
2,1, 7,21, 0,12, 0.00,60.00,SummerDesignDay
59,463301205.89002946
95,119991185.40467149
512,224813060.55296675
1716,463301205.89002946
2,1, 7,21, 0,13, 0.00,60.00,SummerDesignDay
59,463301205.89002946
95,119991185.40467149
512,224813060.55296675
1716,463301205.89002946
2,1, 7,21, 0,14, 0.00,60.00,SummerDesignDay
59,463301205.89002946
95,119991185.40467149
512,224813060.55296675
1716,463301205.89002946
2,1, 7,21, 0,15, 0.00,60.00,SummerDesignDay
59,463301205.89002946
95,119991185.40467149
512,224813060.55296675
1716,463301205.89002946
2,1, 7,21, 0,16, 0.00,60.00,SummerDesignDay
59,463319205.89002946
95,119991185.40467149
512,224813060.55296675
1716,463319205.89002946
2,1, 7,21, 0,17, 0.00,60.00,SummerDesignDay
59,463301205.89002946
95,119991185.40467149
512,224813060.55296675
1716,463301205.89002946
2,1, 7,21, 0,18, 0.00,60.00,SummerDesignDay
59,463335461.65843179
95,120025441.17307365
512,224813060.55296675
1716,463335461.65843179
2,1, 7,21, 0,19, 0.00,60.00,SummerDesignDay
59,465578167.01781538
95,122268146.53245703
512,224813060.55296675
1716,465578167.01781538
2,1, 7,21, 0,20, 0.00,60.00,SummerDesignDay
59,493420102.3737012
95,146615183.8883431
512,224813060.55296675
1716,493420102.3737022
2,1, 7,21, 0,21, 0.00,60.00,SummerDesignDay
59,506864011.2396321
95,152517470.7542746
512,224813060.55296675
1716,506864011.23963388
2,1, 7,21, 0,22, 0.00,60.00,SummerDesignDay
59,506864011.2396321
95,152517470.7542746
512,224813060.55296675
1716,506864011.23963388
2,1, 7,21, 0,23, 0.00,60.00,SummerDesignDay
59,525310020.6234784
95,152517470.7542746
512,224813060.55296675
1716,525310020.6234784
2,1, 7,21, 0,24, 0.00,60.00,SummerDesignDay
59,526018020.6234784
95,152517470.7542746
512,224813060.55296675
1716,526018020.6234784
1,RUNPERIOD 1,  33.63, -84.43,  -5.00, 308.00
2,1, 7, 1, 0, 1, 0.00,60.00,Monday
59,61378117.07798598
95,7625873.53771374
512,44533202.00181081
1716,61378117.07798597
2,1, 7, 1, 0, 2, 0.00,60.00,Monday
59,61378117.07798597
95,7625873.53771374
512,44533202.00181081
1716,61378117.07798597
2,1, 7, 1, 0, 3, 0.00,60.00,Monday
59,64805452.475995179
95,7625873.53771374
512,44533202.00181081
1716,64805452.475995179
2,1, 7, 1, 0, 4, 0.00,60.00,Monday
59,68805595.96382985
95,7625873.53771374
512,44533202.00181081
1716,68805595.96382985
2,1, 7, 1, 0, 5, 0.00,60.00,Monday
59,69902421.9896347
95,7625873.53771374
512,44533202.00181081
1716,69902421.98963468
2,1, 7, 1, 0, 6, 0.00,60.00,Monday
59,87421297.12409543
95,14826659.093040085
512,44533202.00181081
1716,87421297.12409543
2,1, 7, 1, 0, 7, 0.00,60.00,Monday
59,100901875.93511859
95,10780982.974969442
512,55180531.87831209
1716,100901875.93511859
2,1, 7, 1, 0, 8, 0.00,60.00,Monday
59,262111767.30269677
95,31228029.151647625
512,95796493.41677362
1716,262111767.30269674
2,1, 7, 1, 0, 9, 0.00,60.00,Monday
59,434294956.92932119
95,93124323.85391505
512,204227663.7591696
1716,434294956.92932119
2,1, 7, 1, 0,10, 0.00,60.00,Monday
59,392334027.1766953
95,93124323.85391505
512,174055806.61631225
1716,392334027.1766953
2,1, 7, 1, 0,11, 0.00,60.00,Monday
59,378714354.13888308
95,93124323.85391505
512,167093070.3525762
1716,378714354.13888308
2,1, 7, 1, 0,12, 0.00,60.00,Monday
59,385677090.4026186
95,93124323.85391505
512,174055806.61631225
1716,385677090.4026186
2,1, 7, 1, 0,13, 0.00,60.00,Monday
59,386668352.5539199
95,93124323.85391505
512,177667514.30607493
1716,386668352.5539199
2,1, 7, 1, 0,14, 0.00,60.00,Monday
59,391479370.6223989
95,93124323.85391505
512,179858086.83609239
1716,391479370.6223989
2,1, 7, 1, 0,15, 0.00,60.00,Monday
59,378714354.13888308
95,93124323.85391505
512,167093070.3525762
1716,378714354.13888308
2,1, 7, 1, 0,16, 0.00,60.00,Monday
59,378724021.6528601
95,93133991.36789204
512,167093070.3525762
1716,378724021.6528601
2,1, 7, 1, 0,17, 0.00,60.00,Monday
59,390193634.56321558
95,94159499.8826439
512,177537174.74818046
1716,390193634.56321558
2,1, 7, 1, 0,18, 0.00,60.00,Monday
59,329401960.57375666
95,52825585.64327789
512,140923939.57316477
1716,329401960.57375666
2,1, 7, 1, 0,19, 0.00,60.00,Monday
59,239934646.15263347
95,32913672.430611485
512,69106004.40578471
1716,239934646.1526334
2,1, 7, 1, 0,20, 0.00,60.00,Monday
59,236917071.22294445
95,38885365.08333975
512,59822356.054136309
1716,236917071.22294415
2,1, 7, 1, 0,21, 0.00,60.00,Monday
59,232008281.57379855
95,26303943.895732464
512,59822356.054136309
1716,232008281.57379834
2,1, 7, 1, 0,22, 0.00,60.00,Monday
59,93969954.44581384
95,26303943.895732464
512,55180531.87831209
1716,93969954.44581384
2,1, 7, 1, 0,23, 0.00,60.00,Monday
59,83097032.98051587
95,13151971.947866232
512,55180531.87831209
1716,83097032.98051587
2,1, 7, 1, 0,24, 0.00,60.00,Monday
59,83666878.41798581
95,6575985.973933116
512,55180531.87831209
1716,83666878.41798581
2,2, 7, 2, 0, 1, 0.00,60.00,Tuesday
59,62242085.78319607
95,7625873.53771374
512,44533202.00181081
1716,62242085.78319607
2,2, 7, 2, 0, 2, 0.00,60.00,Tuesday
59,61887648.15490905
95,7625873.53771374
512,44533202.00181081
1716,61887648.154909048
2,2, 7, 2, 0, 3, 0.00,60.00,Tuesday
59,61596487.539524439
95,7625873.53771374
512,44533202.00181081
1716,61596487.539524439
2,2, 7, 2, 0, 4, 0.00,60.00,Tuesday
59,68242301.01494812
95,7625873.53771374
512,44533202.00181081
1716,68242301.01494812
2,2, 7, 2, 0, 5, 0.00,60.00,Tuesday
59,73524127.84918235
95,7625873.53771374
512,44533202.00181081
1716,73524127.84918235
2,2, 7, 2, 0, 6, 0.00,60.00,Tuesday
59,75432307.16853796
95,15251747.07542748
512,44533202.00181081
1716,75432307.16853796
2,2, 7, 2, 0, 7, 0.00,60.00,Tuesday
59,100117305.16645062
95,12081689.219203884
512,55180531.87831209
1716,100117305.16645052
2,2, 7, 2, 0, 8, 0.00,60.00,Tuesday
59,261996932.40933607
95,31130404.104440474
512,95796493.41677362
1716,261996932.40933607
2,2, 7, 2, 0, 9, 0.00,60.00,Tuesday
59,434294956.92932119
95,93124323.85391505
512,204227663.7591696
1716,434294956.92932119
2,2, 7, 2, 0,10, 0.00,60.00,Tuesday
59,404081099.7864642
95,93124323.85391505
512,174055806.61631225
1716,404081099.7864642
2,2, 7, 2, 0,11, 0.00,60.00,Tuesday
59,397094363.5227287
95,93124323.85391505
512,167093070.3525762
1716,397094363.5227287
2,2, 7, 2, 0,12, 0.00,60.00,Tuesday
59,404045099.7864642
95,93124323.85391505
512,174055806.61631225
1716,404045099.7864642
2,2, 7, 2, 0,13, 0.00,60.00,Tuesday
59,406414273.51730427
95,93124323.85391505
512,177667514.30607493
1716,406414273.5173043
2,2, 7, 2, 0,14, 0.00,60.00,Tuesday
59,391479370.6223989
95,93124323.85391505
512,179858086.83609239
1716,391479370.6223989
2,2, 7, 2, 0,15, 0.00,60.00,Tuesday
59,378714354.13888308
95,93124323.85391505
512,167093070.3525762
1716,378714354.13888308
2,2, 7, 2, 0,16, 0.00,60.00,Tuesday
59,378714354.13888308
95,93124323.85391505
512,167093070.3525762
1716,378714354.13888308
2,2, 7, 2, 0,17, 0.00,60.00,Tuesday
59,389158458.5344866
95,93124323.85391505
512,177537174.74818046
1716,389158458.5344866
2,2, 7, 2, 0,18, 0.00,60.00,Tuesday
59,313871263.4902766
95,51749162.5771431
512,140923939.57316477
1716,313871263.4902766
2,2, 7, 2, 0,19, 0.00,60.00,Tuesday
59,237573588.5145324
95,31518614.792510638
512,69106004.40578471
1716,237573588.5145324
2,2, 7, 2, 0,20, 0.00,60.00,Tuesday
59,237097101.0327301
95,37382529.66235644
512,59822356.054136309
1716,237097101.0327301
2,2, 7, 2, 0,21, 0.00,60.00,Tuesday
59,235317789.26610593
95,26303943.895732464
512,59822356.054136309
1716,235317789.26610593
2,2, 7, 2, 0,22, 0.00,60.00,Tuesday
59,115367166.25382123
95,26303943.895732464
512,55180531.87831209
1716,115367166.25382123
2,2, 7, 2, 0,23, 0.00,60.00,Tuesday
59,106451977.76608876
95,13151971.947866232
512,55180531.87831209
1716,106451977.76608876
2,2, 7, 2, 0,24, 0.00,60.00,Tuesday
59,84394779.95644728
95,6575985.973933116
512,55180531.87831209
1716,84394779.95644729
End of Data
 Number of Records Written=         384
