Program Version,EnergyPlus, Version 9.5.0-de239b2e5f, YMD=2021.07.16 03:33
1,5,Environment Title[],Latitude[deg],Longitude[deg],Time Zone[],Elevation[m]
2,8,Day of Simulation[],Month[],Day of Month[],DST Indicator[1=yes 0=no],Hour[],StartMinute[],EndMinute[],DayType
3,5,Cumulative Day of Simulation[],Month[],Day of Month[],DST Indicator[1=yes 0=no],DayType  ! When Daily Meters Requested
4,2,Cumulative Days of Simulation[],Month[]  ! When Monthly Meters Requested
5,1,Cumulative Days of Simulation[] ! When Run Period Meters Requested
6,1,Calendar Year of Simulation[] ! When Annual Meters Requested
9,1,Electricity:Facility [J] !Hourly
1508,1,ElectricityNet:Facility [J] !Hourly
45,1,InteriorLights:Electricity [J] !Hourly
432,1,InteriorEquipment:Electricity [J] !Hourly
End of Data Dictionary
1,ATLANTA-HARTSFIELD.JACKSON.INTL.AP_GA_USA ANN HTG 99.6% CONDNS DB,  33.63, -84.43,  -5.00, 308.00
2,1, 1,21, 0, 1, 0.00,60.00,WinterDesignDay
9,115919623.926708
45,0.0
432,0.0
1508,115919623.926708
2,1, 1,21, 0, 2, 0.00,60.00,WinterDesignDay
9,115955623.926708
45,0.0
432,0.0
1508,115955623.926708
2,1, 1,21, 0, 3, 0.00,60.00,WinterDesignDay
9,115919623.926708
45,0.0
432,0.0
1508,115919623.926708
2,1, 1,21, 0, 4, 0.00,60.00,WinterDesignDay
9,115919623.926708
45,0.0
432,0.0
1508,115919623.926708
2,1, 1,21, 0, 5, 0.00,60.00,WinterDesignDay
9,115919623.926708
45,0.0
432,0.0
1508,115919623.926708
2,1, 1,21, 0, 6, 0.00,60.00,WinterDesignDay
9,115919623.926708
45,0.0
432,0.0
1508,115919623.926708
2,1, 1,21, 0, 7, 0.00,60.00,WinterDesignDay
9,126063883.92670787
45,0.0
432,0.0
1508,126063883.92670787
2,1, 1,21, 0, 8, 0.00,60.00,WinterDesignDay
9,121423033.92670787
45,0.0
432,0.0
1508,121423033.92670787
2,1, 1,21, 0, 9, 0.00,60.00,WinterDesignDay
9,107248483.92670802
45,0.0
432,0.0
1508,107248483.92670802
2,1, 1,21, 0,10, 0.00,60.00,WinterDesignDay
9,107284483.92670802
45,0.0
432,0.0
1508,107284483.92670802
2,1, 1,21, 0,11, 0.00,60.00,WinterDesignDay
9,107284483.92670802
45,0.0
432,0.0
1508,107284483.92670802
2,1, 1,21, 0,12, 0.00,60.00,WinterDesignDay
9,107248483.92670802
45,0.0
432,0.0
1508,107248483.92670802
2,1, 1,21, 0,13, 0.00,60.00,WinterDesignDay
9,107284483.92670802
45,0.0
432,0.0
1508,107284483.92670802
2,1, 1,21, 0,14, 0.00,60.00,WinterDesignDay
9,107284483.92670802
45,0.0
432,0.0
1508,107284483.92670802
2,1, 1,21, 0,15, 0.00,60.00,WinterDesignDay
9,107284483.92670802
45,0.0
432,0.0
1508,107284483.92670802
2,1, 1,21, 0,16, 0.00,60.00,WinterDesignDay
9,107248483.92670802
45,0.0
432,0.0
1508,107248483.92670802
2,1, 1,21, 0,17, 0.00,60.00,WinterDesignDay
9,107284483.92670802
45,0.0
432,0.0
1508,107284483.92670802
2,1, 1,21, 0,18, 0.00,60.00,WinterDesignDay
9,109798003.92670802
45,0.0
432,0.0
1508,109798003.92670802
2,1, 1,21, 0,19, 0.00,60.00,WinterDesignDay
9,126423883.92670787
45,0.0
432,0.0
1508,126423883.92670787
2,1, 1,21, 0,20, 0.00,60.00,WinterDesignDay
9,118429003.926708
45,0.0
432,0.0
1508,118429003.92670787
2,1, 1,21, 0,21, 0.00,60.00,WinterDesignDay
9,118465003.926708
45,0.0
432,0.0
1508,118465003.92670787
2,1, 1,21, 0,22, 0.00,60.00,WinterDesignDay
9,118501003.926708
45,0.0
432,0.0
1508,118501003.92670787
2,1, 1,21, 0,23, 0.00,60.00,WinterDesignDay
9,118501003.926708
45,0.0
432,0.0
1508,118501003.92670787
2,1, 1,21, 0,24, 0.00,60.00,WinterDesignDay
9,118501003.926708
45,0.0
432,0.0
1508,118501003.92670787
1,ATLANTA-HARTSFIELD.JACKSON.INTL.AP_GA_USA ANN CLG .4% CONDNS DB=>MWB,  33.63, -84.43,  -5.00, 308.00
2,1, 7,21, 0, 1, 0.00,60.00,SummerDesignDay
9,523760640.6234784
45,152517470.7542746
432,224813060.55296675
1508,523760640.6234784
2,1, 7,21, 0, 2, 0.00,60.00,SummerDesignDay
9,523820640.6234784
45,152517470.7542746
432,224813060.55296675
1508,523820640.6234784
2,1, 7,21, 0, 3, 0.00,60.00,SummerDesignDay
9,523910640.6234784
45,152517470.7542746
432,224813060.55296675
1508,523910640.6234784
2,1, 7,21, 0, 4, 0.00,60.00,SummerDesignDay
9,524036640.6234784
45,152517470.7542746
432,224813060.55296675
1508,524036640.6234784
2,1, 7,21, 0, 5, 0.00,60.00,SummerDesignDay
9,524048640.6234784
45,152517470.7542746
432,224813060.55296675
1508,524048640.6234784
2,1, 7,21, 0, 6, 0.00,60.00,SummerDesignDay
9,521844236.3818794
45,152399851.51267544
432,224813060.55296675
1508,521844236.3818794
2,1, 7,21, 0, 7, 0.00,60.00,SummerDesignDay
9,491273199.54922
45,129457169.68001552
432,224813060.55296675
1508,491273199.5492201
2,1, 7,21, 0, 8, 0.00,60.00,SummerDesignDay
9,482114337.952093
45,120340308.08288898
432,224813060.55296675
1508,482114337.95209297
2,1, 7,21, 0, 9, 0.00,60.00,SummerDesignDay
9,474814278.4997982
45,119991185.40467149
432,224813060.55296675
1508,474814278.4997982
2,1, 7,21, 0,10, 0.00,60.00,SummerDesignDay
9,463301205.89002946
45,119991185.40467149
432,224813060.55296675
1508,463301205.89002946
2,1, 7,21, 0,11, 0.00,60.00,SummerDesignDay
9,463301205.89002946
45,119991185.40467149
432,224813060.55296675
1508,463301205.89002946
2,1, 7,21, 0,12, 0.00,60.00,SummerDesignDay
9,463301205.89002946
45,119991185.40467149
432,224813060.55296675
1508,463301205.89002946
2,1, 7,21, 0,13, 0.00,60.00,SummerDesignDay
9,463301205.89002946
45,119991185.40467149
432,224813060.55296675
1508,463301205.89002946
2,1, 7,21, 0,14, 0.00,60.00,SummerDesignDay
9,463301205.89002946
45,119991185.40467149
432,224813060.55296675
1508,463301205.89002946
2,1, 7,21, 0,15, 0.00,60.00,SummerDesignDay
9,463301205.89002946
45,119991185.40467149
432,224813060.55296675
1508,463301205.89002946
2,1, 7,21, 0,16, 0.00,60.00,SummerDesignDay
9,463319205.89002946
45,119991185.40467149
432,224813060.55296675
1508,463319205.89002946
2,1, 7,21, 0,17, 0.00,60.00,SummerDesignDay
9,463301205.89002946
45,119991185.40467149
432,224813060.55296675
1508,463301205.89002946
2,1, 7,21, 0,18, 0.00,60.00,SummerDesignDay
9,463335461.65843179
45,120025441.17307365
432,224813060.55296675
1508,463335461.65843179
2,1, 7,21, 0,19, 0.00,60.00,SummerDesignDay
9,465578167.01781538
45,122268146.53245703
432,224813060.55296675
1508,465578167.01781538
2,1, 7,21, 0,20, 0.00,60.00,SummerDesignDay
9,493420102.3737012
45,146615183.8883431
432,224813060.55296675
1508,493420102.3737022
2,1, 7,21, 0,21, 0.00,60.00,SummerDesignDay
9,506864011.2396321
45,152517470.7542746
432,224813060.55296675
1508,506864011.23963388
2,1, 7,21, 0,22, 0.00,60.00,SummerDesignDay
9,506864011.2396321
45,152517470.7542746
432,224813060.55296675
1508,506864011.23963388
2,1, 7,21, 0,23, 0.00,60.00,SummerDesignDay
9,525310020.6234784
45,152517470.7542746
432,224813060.55296675
1508,525310020.6234784
2,1, 7,21, 0,24, 0.00,60.00,SummerDesignDay
9,526018020.6234784
45,152517470.7542746
432,224813060.55296675
1508,526018020.6234784
1,RUNPERIOD 1,  33.63, -84.43,  -5.00, 308.00
2,1, 7, 1, 0, 1, 0.00,60.00,Monday
9,61960438.3087552
45,7625873.53771374
432,44533202.00181081
1508,61960438.30875519
2,1, 7, 1, 0, 2, 0.00,60.00,Monday
9,62033228.462601359
45,7625873.53771374
432,44533202.00181081
1508,62033228.46260135
2,1, 7, 1, 0, 3, 0.00,60.00,Monday
9,66815037.36085627
45,7625873.53771374
432,44533202.00181081
1508,66815037.360856268
2,1, 7, 1, 0, 4, 0.00,60.00,Monday
9,70387953.0665577
45,7625873.53771374
432,44533202.00181081
1508,70387953.0665577
2,1, 7, 1, 0, 5, 0.00,60.00,Monday
9,74130449.07995154
45,7625873.53771374
432,44533202.00181081
1508,74130449.07995153
2,1, 7, 1, 0, 6, 0.00,60.00,Monday
9,82184983.43080499
45,14826659.093040085
432,44533202.00181081
1508,82184983.43080499
2,1, 7, 1, 0, 7, 0.00,60.00,Monday
9,102897210.08896476
45,10780982.974969442
432,55180531.87831209
1508,102897210.08896476
2,1, 7, 1, 0, 8, 0.00,60.00,Monday
9,262190557.4565429
45,31228029.151647625
432,95796493.41677362
1508,262190557.4565429
2,1, 7, 1, 0, 9, 0.00,60.00,Monday
9,434288956.92932119
45,93124323.85391505
432,204227663.7591696
1508,434288956.92932119
2,1, 7, 1, 0,10, 0.00,60.00,Monday
9,392340027.1766953
45,93124323.85391505
432,174055806.61631225
1508,392340027.1766953
2,1, 7, 1, 0,11, 0.00,60.00,Monday
9,378714354.13888308
45,93124323.85391505
432,167093070.3525762
1508,378714354.13888308
2,1, 7, 1, 0,12, 0.00,60.00,Monday
9,385677090.4026186
45,93124323.85391505
432,174055806.61631225
1508,385677090.4026186
2,1, 7, 1, 0,13, 0.00,60.00,Monday
9,389288798.0923817
45,93124323.85391505
432,177667514.30607493
1508,389288798.0923817
2,1, 7, 1, 0,14, 0.00,60.00,Monday
9,391479370.6223989
45,93124323.85391505
432,179858086.83609239
1508,391479370.6223989
2,1, 7, 1, 0,15, 0.00,60.00,Monday
9,378714354.13888308
45,93124323.85391505
432,167093070.3525762
1508,378714354.13888308
2,1, 7, 1, 0,16, 0.00,60.00,Monday
9,378724021.6528601
45,93133991.36789204
432,167093070.3525762
1508,378724021.6528601
2,1, 7, 1, 0,17, 0.00,60.00,Monday
9,390193634.56321558
45,94159499.8826439
432,177537174.74818046
1508,390193634.56321558
2,1, 7, 1, 0,18, 0.00,60.00,Monday
9,329401960.57375666
45,52825585.64327789
432,140923939.57316477
1508,329401960.57375666
2,1, 7, 1, 0,19, 0.00,60.00,Monday
9,239946646.15263347
45,32913672.430611485
432,69106004.40578471
1508,239946646.1526334
2,1, 7, 1, 0,20, 0.00,60.00,Monday
9,239391936.4537135
45,38885365.08333975
432,59822356.054136309
1508,239391936.4537135
2,1, 7, 1, 0,21, 0.00,60.00,Monday
9,233397294.49687539
45,26303943.895732464
432,59822356.054136309
1508,233397294.49687527
2,1, 7, 1, 0,22, 0.00,60.00,Monday
9,94916226.44581378
45,26303943.895732464
432,55180531.87831209
1508,94916226.44581378
2,1, 7, 1, 0,23, 0.00,60.00,Monday
9,84043304.9805159
45,13151971.947866232
432,55180531.87831209
1508,84043304.9805159
2,1, 7, 1, 0,24, 0.00,60.00,Monday
9,85322025.67455986
45,6575985.973933116
432,55180531.87831209
1508,85322025.67455986
2,2, 7, 2, 0, 1, 0.00,60.00,Tuesday
9,62242085.78319607
45,7625873.53771374
432,44533202.00181081
1508,62242085.78319607
2,2, 7, 2, 0, 2, 0.00,60.00,Tuesday
9,61742067.84721675
45,7625873.53771374
432,44533202.00181081
1508,61742067.84721674
2,2, 7, 2, 0, 3, 0.00,60.00,Tuesday
9,61814858.0010629
45,7625873.53771374
432,44533202.00181081
1508,61814858.0010629
2,2, 7, 2, 0, 4, 0.00,60.00,Tuesday
9,69023966.42536833
45,7625873.53771374
432,44533202.00181081
1508,69023966.42536831
2,2, 7, 2, 0, 5, 0.00,60.00,Tuesday
9,70169582.60501929
45,7625873.53771374
432,44533202.00181081
1508,70169582.60501927
2,2, 7, 2, 0, 6, 0.00,60.00,Tuesday
9,74262690.988887
45,15251747.07542748
432,44533202.00181081
1508,74262690.988887
2,2, 7, 2, 0, 7, 0.00,60.00,Tuesday
9,100335675.62798907
45,12081689.219203884
432,55180531.87831209
1508,100335675.62798901
2,2, 7, 2, 0, 8, 0.00,60.00,Tuesday
9,261996932.40933607
45,31130404.104440474
432,95796493.41677362
1508,261996932.40933607
2,2, 7, 2, 0, 9, 0.00,60.00,Tuesday
9,434294956.92932119
45,93124323.85391505
432,204227663.7591696
1508,434294956.92932119
2,2, 7, 2, 0,10, 0.00,60.00,Tuesday
9,404081099.7864642
45,93124323.85391505
432,174055806.61631225
1508,404081099.7864642
2,2, 7, 2, 0,11, 0.00,60.00,Tuesday
9,397094363.5227287
45,93124323.85391505
432,167093070.3525762
1508,397094363.5227287
2,2, 7, 2, 0,12, 0.00,60.00,Tuesday
9,404045099.7864642
45,93124323.85391505
432,174055806.61631225
1508,404045099.7864642
2,2, 7, 2, 0,13, 0.00,60.00,Tuesday
9,406414273.51730427
45,93124323.85391505
432,177667514.30607493
1508,406414273.5173043
2,2, 7, 2, 0,14, 0.00,60.00,Tuesday
9,391479370.6223989
45,93124323.85391505
432,179858086.83609239
1508,391479370.6223989
2,2, 7, 2, 0,15, 0.00,60.00,Tuesday
9,378714354.13888308
45,93124323.85391505
432,167093070.3525762
1508,378714354.13888308
2,2, 7, 2, 0,16, 0.00,60.00,Tuesday
9,378714354.13888308
45,93124323.85391505
432,167093070.3525762
1508,378714354.13888308
2,2, 7, 2, 0,17, 0.00,60.00,Tuesday
9,389158458.5344866
45,93124323.85391505
432,177537174.74818046
1508,389158458.5344866
2,2, 7, 2, 0,18, 0.00,60.00,Tuesday
9,313871263.4902766
45,51749162.5771431
432,140923939.57316477
1508,313871263.4902766
2,2, 7, 2, 0,19, 0.00,60.00,Tuesday
9,237573588.5145324
45,31518614.792510638
432,69106004.40578471
1508,237573588.5145324
2,2, 7, 2, 0,20, 0.00,60.00,Tuesday
9,237091101.0327301
45,37382529.66235644
432,59822356.054136309
1508,237091101.0327301
2,2, 7, 2, 0,21, 0.00,60.00,Tuesday
9,235317789.26610593
45,26303943.895732464
432,59822356.054136309
1508,235317789.26610593
2,2, 7, 2, 0,22, 0.00,60.00,Tuesday
9,115794394.0359544
45,26303943.895732464
432,55180531.87831209
1508,115794394.0359544
2,2, 7, 2, 0,23, 0.00,60.00,Tuesday
9,105951959.83010942
45,13151971.947866232
432,55180531.87831209
1508,105951959.83010942
2,2, 7, 2, 0,24, 0.00,60.00,Tuesday
9,91040593.43187097
45,6575985.973933116
432,55180531.87831209
1508,91040593.43187097
End of Data
 Number of Records Written=         384
