Program Version,EnergyPlus, Version 9.5.0-de239b2e5f, YMD=2021.07.16 03:11
1,5,Environment Title[],Latitude[deg],Longitude[deg],Time Zone[],Elevation[m]
2,8,Day of Simulation[],Month[],Day of Month[],DST Indicator[1=yes 0=no],Hour[],StartMinute[],EndMinute[],DayType
3,5,Cumulative Day of Simulation[],Month[],Day of Month[],DST Indicator[1=yes 0=no],DayType  ! When Daily Report Variables Requested
4,2,Cumulative Days of Simulation[],Month[]  ! When Monthly Report Variables Requested
5,1,Cumulative Days of Simulation[] ! When Run Period Report Variables Requested
6,1,Calendar Year of Simulation[] ! When Annual Report Variables Requested
651,1,PERIMETER_BOT_ZN_1,Zone Mean Air Temperature [C] !Hourly
1716,1,PERI1_TOP_LOTEMP,Zone Radiant HVAC Cooling Rate [W] !Hourly
End of Data Dictionary
1,ATLANTA-HARTSFIELD.JACKSON.INTL.AP_GA_USA ANN HTG 99.6% CONDNS DB,  33.63, -84.43,  -5.00, 308.00
2,1, 1,21, 0, 1, 0.00,60.00,WinterDesignDay
651,16.051292496802814
1716,0.0
2,1, 1,21, 0, 2, 0.00,60.00,WinterDesignDay
651,16.04967177145685
1716,0.0
2,1, 1,21, 0, 3, 0.00,60.00,WinterDesignDay
651,16.049873333433469
1716,0.0
2,1, 1,21, 0, 4, 0.00,60.00,WinterDesignDay
651,16.049194020368377
1716,0.0
2,1, 1,21, 0, 5, 0.00,60.00,WinterDesignDay
651,16.049710385137435
1716,0.0
2,1, 1,21, 0, 6, 0.00,60.00,WinterDesignDay
651,16.04868260858905
1716,0.0
2,1, 1,21, 0, 7, 0.00,60.00,WinterDesignDay
651,16.092909520184798
1716,0.0
2,1, 1,21, 0, 8, 0.00,60.00,WinterDesignDay
651,16.05122271762102
1716,0.0
2,1, 1,21, 0, 9, 0.00,60.00,WinterDesignDay
651,16.058710730765893
1716,0.0
2,1, 1,21, 0,10, 0.00,60.00,WinterDesignDay
651,16.053794298409128
1716,0.0
2,1, 1,21, 0,11, 0.00,60.00,WinterDesignDay
651,16.04848095332204
1716,0.0
2,1, 1,21, 0,12, 0.00,60.00,WinterDesignDay
651,16.053891404911579
1716,0.0
2,1, 1,21, 0,13, 0.00,60.00,WinterDesignDay
651,16.057687116175669
1716,0.0
2,1, 1,21, 0,14, 0.00,60.00,WinterDesignDay
651,16.052163085869624
1716,0.0
2,1, 1,21, 0,15, 0.00,60.00,WinterDesignDay
651,16.051593652584953
1716,0.0
2,1, 1,21, 0,16, 0.00,60.00,WinterDesignDay
651,16.05849190266736
1716,0.0
2,1, 1,21, 0,17, 0.00,60.00,WinterDesignDay
651,16.05733374460486
1716,0.0
2,1, 1,21, 0,18, 0.00,60.00,WinterDesignDay
651,16.052558928224778
1716,0.0
2,1, 1,21, 0,19, 0.00,60.00,WinterDesignDay
651,16.041961590605493
1716,0.0
2,1, 1,21, 0,20, 0.00,60.00,WinterDesignDay
651,16.045137506644087
1716,0.0
2,1, 1,21, 0,21, 0.00,60.00,WinterDesignDay
651,16.037761904783687
1716,0.0
2,1, 1,21, 0,22, 0.00,60.00,WinterDesignDay
651,16.05198722233478
1716,0.0
2,1, 1,21, 0,23, 0.00,60.00,WinterDesignDay
651,16.05050458968803
1716,0.0
2,1, 1,21, 0,24, 0.00,60.00,WinterDesignDay
651,16.052974156462726
1716,0.0
1,ATLANTA-HARTSFIELD.JACKSON.INTL.AP_GA_USA ANN CLG .4% CONDNS DB=>MWB,  33.63, -84.43,  -5.00, 308.00
2,1, 7,21, 0, 1, 0.00,60.00,SummerDesignDay
651,19.176554787888965
1716,10105.154790156974
2,1, 7,21, 0, 2, 0.00,60.00,SummerDesignDay
651,19.078779818175929
1716,9960.953281526214
2,1, 7,21, 0, 3, 0.00,60.00,SummerDesignDay
651,19.002238182526609
1716,9819.709345562582
2,1, 7,21, 0, 4, 0.00,60.00,SummerDesignDay
651,18.93777405904077
1716,9686.964643654826
2,1, 7,21, 0, 5, 0.00,60.00,SummerDesignDay
651,18.881969739101917
1716,9568.10995947835
2,1, 7,21, 0, 6, 0.00,60.00,SummerDesignDay
651,18.843794418614537
1716,9507.675402807483
2,1, 7,21, 0, 7, 0.00,60.00,SummerDesignDay
651,19.203685412518916
1716,10786.312987335163
2,1, 7,21, 0, 8, 0.00,60.00,SummerDesignDay
651,19.429060222430853
1716,11073.960217968399
2,1, 7,21, 0, 9, 0.00,60.00,SummerDesignDay
651,19.757522349821149
1716,11951.011550556435
2,1, 7,21, 0,10, 0.00,60.00,SummerDesignDay
651,20.151085454131626
1716,12994.166531373992
2,1, 7,21, 0,11, 0.00,60.00,SummerDesignDay
651,20.701952543431696
1716,14570.435914027648
2,1, 7,21, 0,12, 0.00,60.00,SummerDesignDay
651,21.29110756485562
1716,16062.221669306577
2,1, 7,21, 0,13, 0.00,60.00,SummerDesignDay
651,21.750254414910914
1716,16971.57455636492
2,1, 7,21, 0,14, 0.00,60.00,SummerDesignDay
651,22.001048122269247
1716,17194.38333150354
2,1, 7,21, 0,15, 0.00,60.00,SummerDesignDay
651,22.012920075938795
1716,16741.68351065479
2,1, 7,21, 0,16, 0.00,60.00,SummerDesignDay
651,21.797294646240418
1716,15769.36759801004
2,1, 7,21, 0,17, 0.00,60.00,SummerDesignDay
651,21.456037800397909
1716,14735.461131684815
2,1, 7,21, 0,18, 0.00,60.00,SummerDesignDay
651,21.110911534265325
1716,13905.400114851189
2,1, 7,21, 0,19, 0.00,60.00,SummerDesignDay
651,20.749793010443978
1716,13036.84782768513
2,1, 7,21, 0,20, 0.00,60.00,SummerDesignDay
651,20.43392212253927
1716,12455.2234025879
2,1, 7,21, 0,21, 0.00,60.00,SummerDesignDay
651,20.162169752986008
1716,11932.06261450587
2,1, 7,21, 0,22, 0.00,60.00,SummerDesignDay
651,19.956572171837995
1716,11581.994008420073
2,1, 7,21, 0,23, 0.00,60.00,SummerDesignDay
651,19.494505565303578
1716,10238.756204113253
2,1, 7,21, 0,24, 0.00,60.00,SummerDesignDay
651,19.3145401096023
1716,10310.368508287758
1,RUNPERIOD 1,  33.63, -84.43,  -5.00, 308.00
2,1, 7, 1, 0, 1, 0.00,60.00,Monday
651,17.974237523360846
1716,5672.877571238599
2,1, 7, 1, 0, 2, 0.00,60.00,Monday
651,17.973007412002329
1716,5625.307136872483
2,1, 7, 1, 0, 3, 0.00,60.00,Monday
651,17.97262895822904
1716,5208.730857445808
2,1, 7, 1, 0, 4, 0.00,60.00,Monday
651,17.97137189378181
1716,5276.875228949839
2,1, 7, 1, 0, 5, 0.00,60.00,Monday
651,17.969924347144933
1716,5830.682489113391
2,1, 7, 1, 0, 6, 0.00,60.00,Monday
651,17.979809212387705
1716,6867.950702317552
2,1, 7, 1, 0, 7, 0.00,60.00,Monday
651,18.005442514808498
1716,12425.535982791911
2,1, 7, 1, 0, 8, 0.00,60.00,Monday
651,19.218464075095655
1716,19720.533887137874
2,1, 7, 1, 0, 9, 0.00,60.00,Monday
651,18.437105261880448
1716,17297.580831779753
2,1, 7, 1, 0,10, 0.00,60.00,Monday
651,18.606930379391014
1716,14982.927099838429
2,1, 7, 1, 0,11, 0.00,60.00,Monday
651,19.0878129710029
1716,14667.357823219836
2,1, 7, 1, 0,12, 0.00,60.00,Monday
651,19.761345061669219
1716,15311.676664779454
2,1, 7, 1, 0,13, 0.00,60.00,Monday
651,23.11889266419797
1716,1556.8469339298534
2,1, 7, 1, 0,14, 0.00,60.00,Monday
651,22.136015041261815
1716,9295.790529898948
2,1, 7, 1, 0,15, 0.00,60.00,Monday
651,21.9105583504125
1716,11264.357019793164
2,1, 7, 1, 0,16, 0.00,60.00,Monday
651,21.73215336977643
1716,11468.02031205462
2,1, 7, 1, 0,17, 0.00,60.00,Monday
651,21.158595419988097
1716,11031.242329986511
2,1, 7, 1, 0,18, 0.00,60.00,Monday
651,20.80778440128717
1716,17324.5078059215
2,1, 7, 1, 0,19, 0.00,60.00,Monday
651,19.024458631118998
1716,12317.266503232218
2,1, 7, 1, 0,20, 0.00,60.00,Monday
651,18.06137553479535
1716,5346.550244482456
2,1, 7, 1, 0,21, 0.00,60.00,Monday
651,17.984560205133293
1716,4411.275450575124
2,1, 7, 1, 0,22, 0.00,60.00,Monday
651,17.971223614505683
1716,5486.389954487913
2,1, 7, 1, 0,23, 0.00,60.00,Monday
651,17.969713101848805
1716,5060.765760216337
2,1, 7, 1, 0,24, 0.00,60.00,Monday
651,17.969341640408055
1716,6224.96953582894
2,2, 7, 2, 0, 1, 0.00,60.00,Tuesday
651,17.989216852043545
1716,4669.100119975423
2,2, 7, 2, 0, 2, 0.00,60.00,Tuesday
651,17.99074329396034
1716,5414.172081364668
2,2, 7, 2, 0, 3, 0.00,60.00,Tuesday
651,17.985925722751273
1716,4329.698950193938
2,2, 7, 2, 0, 4, 0.00,60.00,Tuesday
651,17.98494989033821
1716,5324.180607025143
2,2, 7, 2, 0, 5, 0.00,60.00,Tuesday
651,17.983444654686918
1716,4428.8496216040989
2,2, 7, 2, 0, 6, 0.00,60.00,Tuesday
651,17.987567166096356
1716,5526.533850477813
2,2, 7, 2, 0, 7, 0.00,60.00,Tuesday
651,18.005402599528929
1716,9643.447040748242
2,2, 7, 2, 0, 8, 0.00,60.00,Tuesday
651,18.924734503362005
1716,12560.525890374707
2,2, 7, 2, 0, 9, 0.00,60.00,Tuesday
651,19.194502970896115
1716,10566.331047653097
2,2, 7, 2, 0,10, 0.00,60.00,Tuesday
651,19.643423445447753
1716,11623.868229661402
2,2, 7, 2, 0,11, 0.00,60.00,Tuesday
651,20.124807052488703
1716,12786.990550504914
2,2, 7, 2, 0,12, 0.00,60.00,Tuesday
651,20.673139382401755
1716,14150.990691362997
2,2, 7, 2, 0,13, 0.00,60.00,Tuesday
651,22.774760014963669
1716,20528.170221316755
2,2, 7, 2, 0,14, 0.00,60.00,Tuesday
651,21.573061624619887
1716,13331.16436298177
2,2, 7, 2, 0,15, 0.00,60.00,Tuesday
651,21.450237231739654
1716,14552.474349952136
2,2, 7, 2, 0,16, 0.00,60.00,Tuesday
651,21.423687155273688
1716,14640.079016613725
2,2, 7, 2, 0,17, 0.00,60.00,Tuesday
651,21.252392156969113
1716,14054.8368248005
2,2, 7, 2, 0,18, 0.00,60.00,Tuesday
651,22.761845562469206
1716,19092.589504453837
2,2, 7, 2, 0,19, 0.00,60.00,Tuesday
651,20.17921859381361
1716,7699.778647339363
2,2, 7, 2, 0,20, 0.00,60.00,Tuesday
651,18.929796317442376
1716,7145.626942563193
2,2, 7, 2, 0,21, 0.00,60.00,Tuesday
651,18.380587799167935
1716,7342.156453362262
2,2, 7, 2, 0,22, 0.00,60.00,Tuesday
651,18.06513359035115
1716,7241.809039426892
2,2, 7, 2, 0,23, 0.00,60.00,Tuesday
651,18.000830972520555
1716,5476.703535327657
2,2, 7, 2, 0,24, 0.00,60.00,Tuesday
651,17.997109151025879
1716,4865.730796698336
End of Data
 Number of Records Written=         192
