Program Version,EnergyPlus, Version 9.5.0-de239b2e5f, YMD=2021.07.23 01:18
1,5,Environment Title[],Latitude[deg],Longitude[deg],Time Zone[],Elevation[m]
2,8,Day of Simulation[],Month[],Day of Month[],DST Indicator[1=yes 0=no],Hour[],StartMinute[],EndMinute[],DayType
3,5,Cumulative Day of Simulation[],Month[],Day of Month[],DST Indicator[1=yes 0=no],DayType  ! When Daily Report Variables Requested
4,2,Cumulative Days of Simulation[],Month[]  ! When Monthly Report Variables Requested
5,1,Cumulative Days of Simulation[] ! When Run Period Report Variables Requested
6,1,Calendar Year of Simulation[] ! When Annual Report Variables Requested
651,1,PERIMETER_BOT_ZN_1,Zone Mean Air Temperature [C] !Hourly
1716,1,PERI1_TOP_LOTEMP,Zone Radiant HVAC Cooling Rate [W] !Hourly
End of Data Dictionary
1,ATLANTA-HARTSFIELD.JACKSON.INTL.AP_GA_USA ANN HTG 99.6% CONDNS DB,  33.63, -84.43,  -5.00, 308.00
2,1, 1,21, 0, 1, 0.00,60.00,WinterDesignDay
651,16.010609115123445
1716,0.0
2,1, 1,21, 0, 2, 0.00,60.00,WinterDesignDay
651,16.01273822320849
1716,0.0
2,1, 1,21, 0, 3, 0.00,60.00,WinterDesignDay
651,16.009754289396605
1716,0.0
2,1, 1,21, 0, 4, 0.00,60.00,WinterDesignDay
651,16.012345712258907
1716,0.0
2,1, 1,21, 0, 5, 0.00,60.00,WinterDesignDay
651,16.010653707673993
1716,0.0
2,1, 1,21, 0, 6, 0.00,60.00,WinterDesignDay
651,16.010425968216894
1716,0.0
2,1, 1,21, 0, 7, 0.00,60.00,WinterDesignDay
651,16.073699118345567
1716,0.0
2,1, 1,21, 0, 8, 0.00,60.00,WinterDesignDay
651,16.028001835787124
1716,0.0
2,1, 1,21, 0, 9, 0.00,60.00,WinterDesignDay
651,16.02311659245585
1716,0.0
2,1, 1,21, 0,10, 0.00,60.00,WinterDesignDay
651,16.022960354199978
1716,0.0
2,1, 1,21, 0,11, 0.00,60.00,WinterDesignDay
651,16.0212300000227
1716,0.0
2,1, 1,21, 0,12, 0.00,60.00,WinterDesignDay
651,16.02219149250126
1716,0.0
2,1, 1,21, 0,13, 0.00,60.00,WinterDesignDay
651,16.02128655571646
1716,0.0
2,1, 1,21, 0,14, 0.00,60.00,WinterDesignDay
651,16.021937386698668
1716,0.0
2,1, 1,21, 0,15, 0.00,60.00,WinterDesignDay
651,16.02298533338868
1716,0.0
2,1, 1,21, 0,16, 0.00,60.00,WinterDesignDay
651,16.023022653318649
1716,0.0
2,1, 1,21, 0,17, 0.00,60.00,WinterDesignDay
651,16.02215085413572
1716,0.0
2,1, 1,21, 0,18, 0.00,60.00,WinterDesignDay
651,16.021691027472888
1716,0.0
2,1, 1,21, 0,19, 0.00,60.00,WinterDesignDay
651,16.000237940764867
1716,0.0
2,1, 1,21, 0,20, 0.00,60.00,WinterDesignDay
651,16.013380470832599
1716,0.0
2,1, 1,21, 0,21, 0.00,60.00,WinterDesignDay
651,16.01318963163228
1716,0.0
2,1, 1,21, 0,22, 0.00,60.00,WinterDesignDay
651,16.012820823247055
1716,0.0
2,1, 1,21, 0,23, 0.00,60.00,WinterDesignDay
651,16.010536285360084
1716,0.0
2,1, 1,21, 0,24, 0.00,60.00,WinterDesignDay
651,16.010203303875249
1716,0.0
1,ATLANTA-HARTSFIELD.JACKSON.INTL.AP_GA_USA ANN CLG .4% CONDNS DB=>MWB,  33.63, -84.43,  -5.00, 308.00
2,1, 7,21, 0, 1, 0.00,60.00,SummerDesignDay
651,20.39851118907746
1716,9177.344529798776
2,1, 7,21, 0, 2, 0.00,60.00,SummerDesignDay
651,20.271829923819934
1716,8998.715737960263
2,1, 7,21, 0, 3, 0.00,60.00,SummerDesignDay
651,20.1715883140915
1716,8847.56124133509
2,1, 7,21, 0, 4, 0.00,60.00,SummerDesignDay
651,20.086035174454968
1716,8711.805551873713
2,1, 7,21, 0, 5, 0.00,60.00,SummerDesignDay
651,20.011120157117344
1716,8589.411922190131
2,1, 7,21, 0, 6, 0.00,60.00,SummerDesignDay
651,19.956175526984475
1716,8498.809332019653
2,1, 7,21, 0, 7, 0.00,60.00,SummerDesignDay
651,20.339234504454553
1716,9091.51497537985
2,1, 7,21, 0, 8, 0.00,60.00,SummerDesignDay
651,20.59731484587905
1716,9431.783965971845
2,1, 7,21, 0, 9, 0.00,60.00,SummerDesignDay
651,20.970831919513058
1716,10020.56730336235
2,1, 7,21, 0,10, 0.00,60.00,SummerDesignDay
651,21.428698755701129
1716,10764.689419716842
2,1, 7,21, 0,11, 0.00,60.00,SummerDesignDay
651,22.076962849409207
1716,11854.501127379915
2,1, 7,21, 0,12, 0.00,60.00,SummerDesignDay
651,22.787556434110195
1716,13054.691875366685
2,1, 7,21, 0,13, 0.00,60.00,SummerDesignDay
651,23.367106292196227
1716,13569.519576639885
2,1, 7,21, 0,14, 0.00,60.00,SummerDesignDay
651,23.76515220696157
1716,13496.698738256182
2,1, 7,21, 0,15, 0.00,60.00,SummerDesignDay
651,23.901047048536499
1716,13492.862718816297
2,1, 7,21, 0,16, 0.00,60.00,SummerDesignDay
651,23.731660228110166
1716,13483.858814607669
2,1, 7,21, 0,17, 0.00,60.00,SummerDesignDay
651,23.337563634744489
1716,13474.880681651297
2,1, 7,21, 0,18, 0.00,60.00,SummerDesignDay
651,22.860318076825896
1716,13268.08926557581
2,1, 7,21, 0,19, 0.00,60.00,SummerDesignDay
651,22.3621996008801
1716,12278.957220314558
2,1, 7,21, 0,20, 0.00,60.00,SummerDesignDay
651,21.949275405295756
1716,11523.043998147023
2,1, 7,21, 0,21, 0.00,60.00,SummerDesignDay
651,21.60840094950545
1716,10963.67294644165
2,1, 7,21, 0,22, 0.00,60.00,SummerDesignDay
651,21.348676506791845
1716,10556.092623545912
2,1, 7,21, 0,23, 0.00,60.00,SummerDesignDay
651,20.81402507618641
1716,9717.246530762983
2,1, 7,21, 0,24, 0.00,60.00,SummerDesignDay
651,20.572373542192314
1716,9410.655415109224
1,RUNPERIOD 1,  33.63, -84.43,  -5.00, 308.00
2,1, 7, 1, 0, 1, 0.00,60.00,Sunday
651,21.103461675278998
1716,13437.393044715402
2,1, 7, 1, 0, 2, 0.00,60.00,Sunday
651,20.706367975846385
1716,13119.65938257546
2,1, 7, 1, 0, 3, 0.00,60.00,Sunday
651,20.385315453443515
1716,13166.085654441733
2,1, 7, 1, 0, 4, 0.00,60.00,Sunday
651,20.114703868448886
1716,12063.492932939558
2,1, 7, 1, 0, 5, 0.00,60.00,Sunday
651,20.247832923081373
1716,0.0
2,1, 7, 1, 0, 6, 0.00,60.00,Sunday
651,20.337256593510813
1716,13707.480429705534
2,1, 7, 1, 0, 7, 0.00,60.00,Sunday
651,20.633199103963418
1716,0.0
2,1, 7, 1, 0, 8, 0.00,60.00,Sunday
651,21.235919396885348
1716,0.0
2,1, 7, 1, 0, 9, 0.00,60.00,Sunday
651,21.558502889392508
1716,13550.657960408773
2,1, 7, 1, 0,10, 0.00,60.00,Sunday
651,21.86838437928423
1716,13363.293958023129
2,1, 7, 1, 0,11, 0.00,60.00,Sunday
651,22.694382325497565
1716,0.0
2,1, 7, 1, 0,12, 0.00,60.00,Sunday
651,23.851561034226003
1716,0.0
2,1, 7, 1, 0,13, 0.00,60.00,Sunday
651,24.658069360553694
1716,0.0
2,1, 7, 1, 0,14, 0.00,60.00,Sunday
651,24.78332815900119
1716,0.0
2,1, 7, 1, 0,15, 0.00,60.00,Sunday
651,24.807814642815733
1716,0.0
2,1, 7, 1, 0,16, 0.00,60.00,Sunday
651,24.683918791978827
1716,0.0
2,1, 7, 1, 0,17, 0.00,60.00,Sunday
651,24.258394267142113
1716,0.0
2,1, 7, 1, 0,18, 0.00,60.00,Sunday
651,23.841622517198986
1716,0.0
2,1, 7, 1, 0,19, 0.00,60.00,Sunday
651,23.511471559576749
1716,0.0
2,1, 7, 1, 0,20, 0.00,60.00,Sunday
651,23.17920482581424
1716,0.0
2,1, 7, 1, 0,21, 0.00,60.00,Sunday
651,22.763690122382397
1716,0.0
2,1, 7, 1, 0,22, 0.00,60.00,Sunday
651,22.632780184339717
1716,0.0
2,1, 7, 1, 0,23, 0.00,60.00,Sunday
651,22.537591780547726
1716,0.0
2,1, 7, 1, 0,24, 0.00,60.00,Sunday
651,21.92248383293307
1716,13692.423440793575
2,2, 7, 2, 0, 1, 0.00,60.00,Monday
651,21.12966586063311
1716,13437.391652780705
2,2, 7, 2, 0, 2, 0.00,60.00,Monday
651,20.689771924278657
1716,13455.821047913914
2,2, 7, 2, 0, 3, 0.00,60.00,Monday
651,20.334070443619749
1716,13454.285866524273
2,2, 7, 2, 0, 4, 0.00,60.00,Monday
651,19.97758452065362
1716,13444.34454641392
2,2, 7, 2, 0, 5, 0.00,60.00,Monday
651,19.60862765977632
1716,12447.783316887564
2,2, 7, 2, 0, 6, 0.00,60.00,Monday
651,19.18336740611704
1716,9719.345589000492
2,2, 7, 2, 0, 7, 0.00,60.00,Monday
651,19.016902603623369
1716,8118.828198475964
2,2, 7, 2, 0, 8, 0.00,60.00,Monday
651,19.807260039177526
1716,8764.537799909629
2,2, 7, 2, 0, 9, 0.00,60.00,Monday
651,20.45056377068413
1716,9406.390049316879
2,2, 7, 2, 0,10, 0.00,60.00,Monday
651,20.958127186220243
1716,10025.359286908762
2,2, 7, 2, 0,11, 0.00,60.00,Monday
651,21.473821093935628
1716,10762.615880946396
2,2, 7, 2, 0,12, 0.00,60.00,Monday
651,22.065739028873968
1716,11690.064867937403
2,2, 7, 2, 0,13, 0.00,60.00,Monday
651,24.04899991812955
1716,13517.556567133843
2,2, 7, 2, 0,14, 0.00,60.00,Monday
651,23.20824609162859
1716,13349.917603387747
2,2, 7, 2, 0,15, 0.00,60.00,Monday
651,23.01941810182232
1716,13085.764283221262
2,2, 7, 2, 0,16, 0.00,60.00,Monday
651,22.961919397720938
1716,12914.14203736481
2,2, 7, 2, 0,17, 0.00,60.00,Monday
651,22.760631000663869
1716,12520.71635015002
2,2, 7, 2, 0,18, 0.00,60.00,Monday
651,24.054518878301434
1716,13504.6866980297
2,2, 7, 2, 0,19, 0.00,60.00,Monday
651,21.667580940582913
1716,10452.410586207512
2,2, 7, 2, 0,20, 0.00,60.00,Monday
651,20.188995915665037
1716,8267.704327330219
2,2, 7, 2, 0,21, 0.00,60.00,Monday
651,19.485296324849938
1716,7408.814132496621
2,2, 7, 2, 0,22, 0.00,60.00,Monday
651,19.08207690798766
1716,6942.095144844784
2,2, 7, 2, 0,23, 0.00,60.00,Monday
651,18.87617725930444
1716,6722.479385813687
2,2, 7, 2, 0,24, 0.00,60.00,Monday
651,18.683351897504175
1716,6456.216351072242
End of Data
 Number of Records Written=         192
