Program Version,EnergyPlus, Version 9.3.0-622089b575 (No OpenGL), YMD=2021.12.03 20:06
1,5,Environment Title[],Latitude[deg],Longitude[deg],Time Zone[],Elevation[m]
2,8,Day of Simulation[],Month[],Day of Month[],DST Indicator[1=yes 0=no],Hour[],StartMinute[],EndMinute[],DayType
3,5,Cumulative Day of Simulation[],Month[],Day of Month[],DST Indicator[1=yes 0=no],DayType  ! When Daily Report Variables Requested
4,2,Cumulative Days of Simulation[],Month[]  ! When Monthly Report Variables Requested
5,1,Cumulative Days of Simulation[] ! When Run Period Report Variables Requested
6,1,Calendar Year of Simulation[] ! When Annual Report Variables Requested
7,1,Environment,Site Outdoor Air Drybulb Temperature [C] !Hourly
703,1,CORE_TOP,Zone Mean Air Temperature [C] !Hourly
704,1,PERIMETER_TOP_ZN_3,Zone Mean Air Temperature [C] !Hourly
705,1,PERIMETER_TOP_ZN_2,Zone Mean Air Temperature [C] !Hourly
706,1,PERIMETER_TOP_ZN_1,Zone Mean Air Temperature [C] !Hourly
707,1,PERIMETER_TOP_ZN_4,Zone Mean Air Temperature [C] !Hourly
1682,1,CORE_TOP_LOTEMP,Zone Radiant HVAC Pump Electric Power [W] !Hourly
1724,1,PERI1_TOP_LOTEMP,Zone Radiant HVAC Pump Electric Power [W] !Hourly
1730,1,PERI2_TOP_LOTEMP,Zone Radiant HVAC Pump Electric Power [W] !Hourly
1734,1,PERI3_TOP_LOTEMP,Zone Radiant HVAC Cooling Rate [W] !Hourly
1737,1,PERI3_TOP_LOTEMP,Zone Radiant HVAC Pump Electric Power [W] !Hourly
1743,1,PERI4_TOP_LOTEMP,Zone Radiant HVAC Pump Electric Power [W] !Hourly
1933,1,COOLSYS1 CHILLER1,Chiller Electric Power [W] !Hourly
2036,1,CHILLED WATER LOOP CHW SUPPLY PUMP2,Pump Electric Power [W] !Hourly
2038,1,HOT WATER LOOP HW SUPPLY PUMP2,Pump Electric Power [W] !Hourly
End of Data Dictionary
1,RUNPERIOD 1,  30.00, -95.37,  -6.00,  29.00
2,1, 1,18, 0, 1, 0.00,60.00,Holiday
7,7.2125
703,21.126838628335045
704,21.135257464592237
705,21.153923757232897
706,21.167307650213006
707,21.20154589836526
1682,25.45246
1724,11.4852375
1730,0.0
1734,0.0
1737,14.158869999999999
1743,3.7478375
1933,0.0
2036,0.0
2038,321.204003
2,1, 1,18, 0, 2, 0.00,60.00,Holiday
7,10.1525
703,21.14343408712232
704,21.214947927159679
705,21.2939134662734
706,21.284755240897625
707,21.359364293522117
1682,25.45246
1724,0.0
1730,0.0
1734,0.0
1737,0.0
1743,0.0
1933,0.0
2036,0.0
2038,107.06800100000001
2,1, 1,18, 0, 3, 0.00,60.00,Holiday
7,7.460000000000001
703,21.063241169679146
704,20.97162708462259
705,20.987763253966496
706,20.979621965788924
707,21.009863284660335
1682,12.72623
1724,53.59777500000001
1730,40.523999999999997
1734,0.0
1737,67.25463249999999
1743,29.9827
1933,0.0
2036,0.0
2038,1070.68001
2,1, 1,18, 0, 4, 0.00,60.00,Holiday
7,6.1225
703,21.063596896729668
704,20.983229116448955
705,21.001520803066197
706,20.994716749545949
707,21.00193256634656
1682,12.72623
1724,45.940950000000018
1730,33.769999999999999
1734,0.0
1737,56.635479999999997
1743,37.47837500000001
1933,0.0
2036,0.0
2038,963.6120090000001
2,1, 1,18, 0, 5, 0.00,60.00,Holiday
7,5.284999999999999
703,21.126358022438855
704,20.98129849156773
705,20.989750676922406
706,20.981346487898607
707,20.998411745080376
1682,25.45246
1724,57.42618750000001
1730,43.900999999999999
1734,0.0
1737,53.0957625
1743,37.47837500000001
1933,0.0
2036,0.0
2038,963.6120090000001
2,1, 1,18, 0, 6, 0.00,60.00,Holiday
7,5.0
703,21.118075769260324
704,20.98618876120449
705,21.003623369847458
706,20.990052106381449
707,21.006264400634728
1682,25.45246
1724,45.940950000000018
1730,30.393
1734,0.0
1737,60.17519749999999
1743,29.9827
1933,0.0
2036,0.0
2038,1070.68001
2,1, 1,18, 0, 7, 0.00,60.00,Holiday
7,4.685
703,21.090885340211356
704,20.997830326934328
705,21.002501285179116
706,20.995355768110849
707,21.00291980284009
1682,0.0
1724,42.112537500000019
1730,27.016000000000003
1734,0.0
1737,35.397175
1743,26.2348625
1933,0.0
2036,0.0
2038,910.0780085
2,1, 1,18, 0, 8, 0.00,60.00,Holiday
7,4.4
703,21.050717677608245
704,20.946514873986044
705,20.9912920653755
706,20.97610012228917
707,20.986027257087274
1682,25.45246
1724,65.08301250000003
1730,40.523999999999997
1734,0.0
1737,67.25463249999999
1743,63.71323750000003
1933,0.0
2036,0.0
2038,1070.68001
2,1, 1,18, 0, 9, 0.00,60.00,Holiday
7,4.4
703,21.04991144049317
704,20.992486351923924
705,21.015987580415659
706,21.009683943063427
707,21.00994775629195
1682,12.72623
1724,30.62730000000001
1730,13.508000000000001
1734,0.0
1737,46.0163275
1743,22.487025
1933,0.0
2036,0.0
2038,963.6120090000001
2,1, 1,18, 0,10, 0.00,60.00,Holiday
7,4.1375
703,21.095301755715178
704,21.01563847330633
705,21.039585228222728
706,21.024587415544326
707,21.0252146922859
1682,0.0
1724,0.0
1730,0.0
1734,0.0
1737,14.158869999999999
1743,7.495675
1933,0.0
2036,0.0
2038,267.6700025
2,1, 1,18, 0,11, 0.00,60.00,Holiday
7,3.9
703,21.07431119888588
704,21.036890469299118
705,21.07912397920462
706,21.025535398939085
707,21.04614892079335
1682,0.0
1724,0.0
1730,0.0
1734,0.0
1737,7.079434999999999
1743,0.0
1933,0.0
2036,0.0
2038,107.06800100000001
2,1, 1,18, 0,12, 0.00,60.00,Holiday
7,4.1625
703,21.115421094769123
704,21.034521922831055
705,21.09563382448395
706,21.055849232934869
707,21.07487912898971
1682,0.0
1724,7.656825
1730,0.0
1734,0.0
1737,7.079434999999999
1743,0.0
1933,0.0
2036,0.0
2038,214.13600200000003
2,1, 1,18, 0,13, 0.00,60.00,Holiday
7,5.03
703,21.189512070775654
704,21.039999608259849
705,21.042031636217698
706,21.28375971610608
707,21.09143388423425
1682,0.0
1724,0.0
1730,0.0
1734,0.0
1737,17.6985875
1743,0.0
1933,0.0
2036,0.0
2038,267.6700025
2,1, 1,18, 0,14, 0.00,60.00,Holiday
7,7.017500000000001
703,21.334153821473384
704,21.048986942245006
705,21.10484237363658
706,22.598471506940457
707,21.231519776140219
1682,0.0
1724,11.4852375
1730,3.3770000000000004
1734,0.0
1737,21.238305
1743,0.0
1933,906.7856774902095
2036,393.87046799999998
2038,374.7380035
2,1, 1,18, 0,15, 0.00,60.00,Holiday
7,8.3
703,21.54590590716001
704,21.070497726210154
705,21.071617002937268
706,22.932470056254226
707,21.894162985967154
1682,0.0
1724,22.970475000000005
1730,10.131
1734,0.0
1737,17.6985875
1743,0.0
1933,1622.6429034002018
2036,787.740936
2038,374.7380035
2,1, 1,18, 0,16, 0.00,60.00,Holiday
7,8.0375
703,21.701570840139284
704,21.09455439214959
705,21.133783445951388
706,22.907332166219683
707,22.53035940476003
1682,0.0
1724,0.0
1730,6.7540000000000008
1734,0.0
1737,17.6985875
1743,0.0
1933,0.0
2036,0.0
2038,321.204003
2,1, 1,18, 0,17, 0.00,60.00,Holiday
7,7.222499999999998
703,21.73876798513494
704,21.02837058955333
705,21.08316755692906
706,22.24090948961934
707,22.162176980382136
1682,0.0
1724,0.0
1730,23.639000000000004
1734,0.0
1737,24.7780225
1743,0.0
1933,0.0
2036,0.0
2038,695.9420065
2,1, 1,18, 0,18, 0.00,60.00,Holiday
7,5.807499999999999
703,21.60549741223868
704,20.98540803316718
705,21.005066863495509
706,21.161141364880874
707,21.349805891370499
1682,0.0
1724,11.4852375
1730,33.769999999999999
1734,0.0
1737,38.9368925
1743,0.0
1933,0.0
2036,0.0
2038,963.6120090000001
2,1, 1,18, 0,19, 0.00,60.00,Holiday
7,4.422500000000001
703,21.296997873733699
704,20.900038095343356
705,20.925857595650844
706,20.988931327772478
707,20.97109259479435
1682,0.0
1724,53.59777500000001
1730,57.40899999999999
1734,0.0
1737,70.79434999999998
1743,52.46972500000002
1933,0.0
2036,0.0
2038,1070.68001
2,1, 1,18, 0,20, 0.00,60.00,Holiday
7,3.5849999999999997
703,21.09997780417457
704,20.806008482054478
705,20.870264707452358
706,20.948275066526216
707,20.95274709219581
1682,25.45246
1724,76.56825000000002
1730,67.53999999999999
1734,0.0
1737,70.79434999999998
1743,74.95675000000003
1933,0.0
2036,0.0
2038,1070.68001
2,1, 1,18, 0,21, 0.00,60.00,Holiday
7,3.0375
703,21.13308608904908
704,20.7460420250836
705,20.82514313520305
706,20.898361452048364
707,20.904987672186889
1682,25.45246
1724,76.56825000000002
1730,67.53999999999999
1734,0.0
1737,70.79434999999998
1743,74.95675000000003
1933,0.0
2036,0.0
2038,1070.68001
2,1, 1,18, 0,22, 0.00,60.00,Holiday
7,2.799999999999999
703,21.114522975414738
704,20.78011085976568
705,20.867834054907893
706,20.915229455923517
707,20.933285915707019
1682,25.45246
1724,76.56825000000002
1730,67.53999999999999
1734,0.0
1737,70.79434999999998
1743,67.46107500000002
1933,0.0
2036,0.0
2038,1070.68001
2,1, 1,18, 0,23, 0.00,60.00,Holiday
7,2.799999999999999
703,21.08378882476704
704,20.81124896109653
705,20.906787494256699
706,20.861197968294289
707,20.814938423917146
1682,25.45246
1724,72.73983750000002
1730,67.53999999999999
1734,0.0
1737,70.79434999999998
1743,71.20891250000003
1933,0.0
2036,0.0
2038,1070.68001
2,1, 1,18, 0,24, 0.00,60.00,Holiday
7,2.2225000000000008
703,21.10165077619567
704,20.793499808297687
705,20.89300621794509
706,20.831740999520897
707,20.834224820914139
1682,50.90492
1724,76.56825000000002
1730,67.53999999999999
1734,0.0
1737,70.79434999999998
1743,74.95675000000003
1933,0.0
2036,0.0
2038,1070.68001
2,2, 1,19, 0, 1, 0.00,60.00,Tuesday
7,1.385
703,21.13076435314278
704,20.96064356116066
705,20.972068816009807
706,20.978209520602854
707,20.992894766602946
1682,25.45246
1724,61.25460000000002
1730,47.27799999999999
1734,0.0
1737,63.71491499999998
1743,44.97405000000001
1933,0.0
2036,0.0
2038,1070.68001
2,2, 1,19, 0, 2, 0.00,60.00,Tuesday
7,0.5225
703,21.11270696982519
704,20.978883762135337
705,20.971469651764033
706,20.9540356797961
707,20.980858547006368
1682,25.45246
1724,65.08301250000003
1730,60.78599999999999
1734,0.0
1737,70.79434999999998
1743,59.965400000000027
1933,0.0
2036,0.0
2038,1070.68001
2,2, 1,19, 0, 3, 0.00,60.00,Tuesday
7,-0.315
703,21.084211388953297
704,20.972775955137377
705,20.97451528913655
706,20.980175488709834
707,20.981032160514933
1682,38.17869
1724,76.56825000000002
1730,57.40899999999999
1734,0.0
1737,63.71491499999998
1743,63.71323750000003
1933,0.0
2036,0.0
2038,1070.68001
2,2, 1,19, 0, 4, 0.00,60.00,Tuesday
7,-0.5999999999999999
703,21.10880574045446
704,21.016452248865315
705,21.030405373363715
706,21.019614599139197
707,21.05387778735286
1682,38.17869
1724,7.656825
1730,6.7540000000000008
1734,0.0
1737,24.7780225
1743,7.495675
1933,0.0
2036,0.0
2038,588.8740055000001
2,2, 1,19, 0, 5, 0.00,60.00,Tuesday
7,-0.8625000000000002
703,21.102389667790754
704,21.007155759029027
705,21.040929575172066
706,21.01146402394703
707,21.060692341779519
1682,25.45246
1724,22.970475000000005
1730,13.508000000000001
1734,0.0
1737,24.7780225
1743,11.2435125
1933,0.0
2036,0.0
2038,588.8740055000001
2,2, 1,19, 0, 6, 0.00,60.00,Tuesday
7,-1.1
703,21.081790840727657
704,20.996896108286767
705,21.01972386779516
706,21.004095556532197
707,21.022630328352429
1682,40.299728333333337
1724,38.28412500000001
1730,13.508000000000001
1734,0.0
1737,42.47661
1743,14.99135
1933,0.0
2036,0.0
2038,749.476007
2,2, 1,19, 0, 7, 0.00,60.00,Tuesday
7,-1.1
703,21.105550981587485
704,20.990451771126204
705,21.010918647195589
706,20.9945234960114
707,21.030342465148398
1682,25.45246
1724,38.28412500000001
1730,20.262000000000005
1734,0.0
1737,38.9368925
1743,18.7391875
1933,0.0
2036,0.0
2038,749.476007
2,2, 1,19, 0, 8, 0.00,60.00,Tuesday
7,-0.8375
703,21.124074385233305
704,21.013221902690029
705,21.36608986473347
706,21.085829377667069
707,21.038192771909807
1682,0.0
1724,6.3806875000000009
1730,3.3770000000000004
1734,0.0
1737,14.158869999999999
1743,0.0
1933,0.0
2036,0.0
2038,249.82533566666667
2,2, 1,19, 0, 9, 0.00,60.00,Tuesday
7,0.8699999999999999
703,22.039531090213928
704,21.620847575949918
705,23.154510446124524
706,22.305263703163516
707,21.678447306459213
1682,0.0
1724,0.0
1730,43.900999999999999
1734,0.0
1737,1.1799058333333333
1743,0.0
1933,4240.458800351261
2036,1706.772028
2038,17.84466683333333
2,2, 1,19, 0,10, 0.00,60.00,Tuesday
7,3.6699999999999997
703,22.83141272673323
704,21.925801346207796
705,23.15783713456677
706,23.067332304820405
707,22.244725583145429
1682,25.45246
1724,57.42618750000001
1730,57.40899999999999
1734,0.0
1737,0.0
1743,0.0
1933,6717.683634884486
2036,2363.2228079999997
2038,0.0
2,2, 1,19, 0,11, 0.00,60.00,Tuesday
7,6.155000000000003
703,22.946992324486737
704,22.109315070307014
705,23.03711574542288
706,23.28049208280281
707,22.748639576210694
1682,63.631150000000008
1724,76.56825000000002
1730,40.523999999999997
1734,0.0
1737,0.0
1743,0.0
1933,7439.933214238312
2036,2625.803119999999
2038,0.0
2,2, 1,19, 0,12, 0.00,60.00,Tuesday
7,8.355
703,22.991090430914406
704,22.5148365125835
705,22.933390504111494
706,24.13999137189176
707,22.964219932910596
1682,101.80984
1724,76.56825000000002
1730,23.639000000000004
1734,0.0
1737,0.0
1743,29.9827
1933,10529.490437864337
2036,2625.803119999999
2038,0.0
2,2, 1,19, 0,13, 0.00,60.00,Tuesday
7,10.029999999999998
703,22.968701289414005
704,22.712738992325339
705,22.841760984280989
706,24.328829544615969
707,22.922296486046915
1682,80.59945666666667
1724,76.56825000000002
1730,6.7540000000000008
1734,0.0
1737,0.0
1743,3.7478375
1933,7849.265692523293
2036,2625.803119999999
2038,0.0
2,2, 1,19, 0,14, 0.00,60.00,Tuesday
7,10.8625
703,23.017448017130179
704,22.92058910452993
705,22.922945014021129
706,24.277796153598954
707,22.942332386166265
1682,139.98853000000003
1724,76.56825000000002
1730,18.573500000000004
1734,1829.5387685540368
1737,15.338775833333333
1743,23.736304166666668
1933,10517.41114547752
2036,2625.803119999999
2038,0.0
2,2, 1,19, 0,15, 0.00,60.00,Tuesday
7,11.415000000000003
703,23.014541299797359
704,22.9145447595578
705,22.92956085195257
706,23.78993950712395
707,23.02003269310409
1682,152.71476
1724,76.56825000000002
1730,20.262000000000005
1734,1655.275761857774
1737,14.158869999999999
1743,37.47837500000001
1933,10270.892713887366
2036,2625.803119999999
2038,0.0
2,2, 1,19, 0,16, 0.00,60.00,Tuesday
7,11.699999999999996
703,23.003964480491086
704,22.88062246140401
705,22.913170090905248
706,23.10157572649157
707,22.94672820735238
1682,114.53607
1724,53.59777500000001
1730,11.819500000000002
1734,832.6649583656468
1737,7.079434999999999
1743,29.9827
1933,8436.526827642796
2036,2363.2228079999997
2038,0.0
2,2, 1,19, 0,17, 0.00,60.00,Tuesday
7,11.699999999999996
703,23.00019052094935
704,22.936621943745516
705,22.945791870077764
706,23.013839526867949
707,22.974985943464568
1682,127.26230000000001
1724,45.940950000000018
1730,6.7540000000000008
1734,444.7946534318935
1737,3.5397174999999998
1743,33.730537500000007
1933,8188.457847368227
2036,2231.9326519999997
2038,0.0
2,2, 1,19, 0,18, 0.00,60.00,Tuesday
7,9.6525
703,22.69738349589287
704,22.29268235494227
705,22.25764986193892
706,22.457248114214669
707,22.507423815759446
1682,4.242076666666667
1724,0.0
1730,0.0
1734,0.0
1737,0.0
1743,2.498558333333333
1933,417.29663864864036
2036,87.52677066666667
2038,0.0
2,2, 1,19, 0,19, 0.00,60.00,Tuesday
7,6.645000000000001
703,22.61733581050955
704,21.383369645630418
705,21.41457337650663
706,21.772709571809846
707,21.58952650152883
1682,0.0
1724,0.0
1730,0.0
1734,0.0
1737,0.0
1743,0.0
1933,0.0
2036,0.0
2038,0.0
2,2, 1,19, 0,20, 0.00,60.00,Tuesday
7,5.8625
703,22.418877148972077
704,21.091333900203947
705,21.14045866939879
706,21.20649539745738
707,21.09485673096649
1682,0.0
1724,0.0
1730,13.508000000000001
1734,0.0
1737,14.158869999999999
1743,7.495675
1933,0.0
2036,0.0
2038,428.27200400000006
2,2, 1,19, 0,21, 0.00,60.00,Tuesday
7,5.207500000000001
703,22.22053556130842
704,21.084099178930228
705,21.184135617130598
706,21.12996195419027
707,21.181005462536857
1682,0.0
1724,15.31365
1730,10.131
1734,0.0
1737,21.238305
1743,11.2435125
1933,0.0
2036,0.0
2038,695.9420065
2,2, 1,19, 0,22, 0.00,60.00,Tuesday
7,4.4
703,22.065551879711557
704,21.077819416909507
705,21.11270057435278
706,21.1005871536048
707,21.146307957410924
1682,0.0
1724,19.1420625
1730,16.885
1734,0.0
1737,21.238305
1743,14.99135
1933,0.0
2036,0.0
2038,481.80600450000005
2,2, 1,19, 0,23, 0.00,60.00,Tuesday
7,3.245
703,21.880723854739857
704,20.994532049954825
705,21.025332968653765
706,21.010800382684967
707,21.05265399244333
1682,0.0
1724,32.54150625000001
1730,20.262000000000005
1734,0.0
1737,35.397175
1743,18.7391875
1933,0.0
2036,0.0
2038,883.3110082500001
2,2, 1,19, 0,24, 0.00,60.00,Tuesday
7,1.9375000000000005
703,21.698041664138743
704,20.99121798122699
705,21.00527561141299
706,20.990268490530448
707,21.008048315977246
1682,0.0
1724,38.28412500000001
1730,30.393
1734,0.0
1737,42.47661
1743,33.730537500000007
1933,0.0
2036,0.0
2038,910.0780085
2,3, 1,20, 0, 1, 0.00,60.00,Wednesday
7,1.6999999999999998
703,21.452532409919287
704,20.995531300280164
705,21.004669241115346
706,21.000546404166309
707,21.000028208903353
1682,0.0
1724,38.28412500000001
1730,30.393
1734,0.0
1737,38.9368925
1743,33.730537500000007
1933,0.0
2036,0.0
2038,856.5440080000001
2,3, 1,20, 0, 2, 0.00,60.00,Wednesday
7,2.277499999999999
703,21.27796604273295
704,20.982754240851933
705,20.99877644051769
706,20.994791496272286
707,21.006235317005936
1682,0.0
1724,42.112537500000019
1730,37.147
1734,0.0
1737,46.0163275
1743,33.730537500000007
1933,0.0
2036,0.0
2038,963.6120090000001
2,3, 1,20, 0, 3, 0.00,60.00,Wednesday
7,2.4850000000000005
703,21.16265006282807
704,20.97639427136047
705,20.98842730034847
706,20.986743982336088
707,20.999231732831995
1682,0.0
1724,45.940950000000018
1730,43.900999999999999
1734,0.0
1737,49.556045
1743,37.47837500000001
1933,0.0
2036,0.0
2038,910.0780085
2,3, 1,20, 0, 4, 0.00,60.00,Wednesday
7,2.515
703,21.07232788133476
704,20.98594969814735
705,20.988065396080779
706,20.984396800351939
707,20.991501959607839
1682,0.0
1724,53.59777500000001
1730,40.523999999999997
1734,0.0
1737,49.556045
1743,44.97405000000001
1933,0.0
2036,0.0
2038,1017.1460095
2,3, 1,20, 0, 5, 0.00,60.00,Wednesday
7,2.799999999999999
703,21.06042418687094
704,20.992737771100445
705,21.011551374314196
706,20.999274153721026
707,21.00960026138368
1682,12.72623
1724,34.45571250000001
1730,23.639000000000004
1734,0.0
1737,42.47661
1743,26.2348625
1933,0.0
2036,0.0
2038,1017.1460095
2,3, 1,20, 0, 6, 0.00,60.00,Wednesday
7,2.799999999999999
703,21.0532758721965
704,20.91971206986116
705,20.945005370911834
706,20.964405119998966
707,20.94787874275194
1682,12.72623
1724,76.56825000000002
1730,57.40899999999999
1734,0.0
1737,63.71491499999998
1743,59.965400000000027
1933,0.0
2036,0.0
2038,1070.68001
2,3, 1,20, 0, 7, 0.00,60.00,Wednesday
7,3.0624999999999997
703,21.157639413765467
704,21.12434141780657
705,21.172852377854388
706,21.155722592488105
707,21.222982103425914
1682,0.0
1724,3.8284125
1730,3.3770000000000004
1734,0.0
1737,3.539717499999999
1743,2.498558333333333
1933,0.0
2036,0.0
2038,53.534000500000008
2,3, 1,20, 0, 8, 0.00,60.00,Wednesday
7,3.2999999999999987
703,21.258495252053323
704,21.033883089404008
705,21.272970511940878
706,21.0471644701645
707,21.189369140604084
1682,0.0
1724,11.4852375
1730,0.0
1734,0.0
1737,21.238305
1743,0.0
1933,0.0
2036,0.0
2038,374.7380035
2,3, 1,20, 0, 9, 0.00,60.00,Wednesday
7,3.2999999999999987
703,22.255141896202117
704,21.40698324562306
705,21.903797749751047
706,21.435514097988425
707,21.704624819300613
1682,0.0
1724,0.0
1730,0.0
1734,0.0
1737,0.0
1743,0.0
1933,0.0
2036,0.0
2038,0.0
2,3, 1,20, 0,10, 0.00,60.00,Wednesday
7,4.192500000000001
703,22.88431059552412
704,21.43502500530088
705,21.913892083519909
706,21.585477786639879
707,21.76791522903316
1682,25.45246
1724,0.0
1730,0.0
1734,0.0
1737,0.0
1743,0.0
1933,1289.715586590283
2036,262.580312
2038,0.0
2,3, 1,20, 0,11, 0.00,60.00,Wednesday
7,5.8925
703,22.950569749274977
704,21.774069788052807
705,22.081224334631846
706,22.00316782415851
707,21.923493850915177
1682,50.90492
1724,0.0
1730,0.0
1734,0.0
1737,0.0
1743,0.0
1933,2579.431173180566
2036,525.160624
2038,0.0
2,3, 1,20, 0,12, 0.00,60.00,Wednesday
7,7.277500000000002
703,22.929769364734069
704,22.139692310814185
705,22.34731211843927
706,22.407963122951629
707,22.2281051632102
1682,76.35738
1724,0.0
1730,0.0
1734,0.0
1737,0.0
1743,0.0
1933,3869.1467597708494
2036,787.740936
2038,0.0
2,3, 1,20, 0,13, 0.00,60.00,Wednesday
7,8.062500000000002
703,22.953319145168427
704,22.247701504587206
705,22.389685905257868
706,22.6146546479192
707,22.32617254924613
1682,63.631150000000008
1724,0.0
1730,0.0
1734,0.0
1737,0.0
1743,0.0
1933,3224.2889664757078
2036,656.45078
2038,0.0
2,3, 1,20, 0,14, 0.00,60.00,Wednesday
7,8.0375
703,22.988479292030385
704,22.699606726388976
705,22.799043564590919
706,22.98662921809824
707,22.810171638076306
1682,106.05191666666667
1724,31.903437500000007
1730,0.0
1734,0.0
1737,0.0
1743,7.495675
1933,7337.517821656167
2036,2013.115725333333
2038,0.0
2,3, 1,20, 0,15, 0.00,60.00,Wednesday
7,7.8
703,22.98921233485716
704,22.937418175791259
705,22.93476934194247
706,22.938212975838206
707,22.93322698548238
1682,127.26230000000001
1724,30.62730000000001
1730,3.3770000000000004
1734,460.76951270564919
1737,3.5397174999999998
1743,14.99135
1933,7696.134671278621
2036,1838.062184
2038,0.0
2,3, 1,20, 0,16, 0.00,60.00,Wednesday
7,7.8
703,22.993955114070855
704,22.869471633622127
705,22.964770664225666
706,22.920232264804029
707,22.91930648819568
1682,101.80984
1724,11.4852375
1730,0.0
1734,0.0
1737,0.0
1743,7.495675
1933,5492.897427888203
2036,1181.611404
2038,0.0
2,3, 1,20, 0,17, 0.00,60.00,Wednesday
7,7.484999999999997
703,22.99030421635706
704,22.79456449954244
705,22.842833274104515
706,22.867305590248589
707,22.828282097119378
1682,127.26230000000001
1724,0.0
1730,0.0
1734,0.0
1737,0.0
1743,3.7478375
1933,6426.765835317853
2036,1312.90156
2038,0.0
2,3, 1,20, 0,18, 0.00,60.00,Wednesday
7,6.9375
703,22.590997717874609
704,21.907696481869423
705,21.932812694478664
706,22.081569543354868
707,22.023190385710785
1682,4.242076666666667
1724,0.0
1730,0.0
1734,0.0
1737,0.0
1743,0.0
1933,214.50051313208165
2036,43.76338533333333
2038,0.0
2,3, 1,20, 0,19, 0.00,60.00,Wednesday
7,6.700000000000001
703,22.491241286735798
704,21.171821998821476
705,21.195907927679565
706,21.28468046526475
707,21.21482847869023
1682,0.0
1724,0.0
1730,6.7540000000000008
1734,0.0
1737,7.079434999999999
1743,3.7478375
1933,0.0
2036,0.0
2038,160.6020015
2,3, 1,20, 0,20, 0.00,60.00,Wednesday
7,6.385
703,22.33203706250636
704,21.1110701710415
705,21.197953789121255
706,21.11730554154611
707,21.096117805963755
1682,0.0
1724,15.31365
1730,6.7540000000000008
1734,0.0
1737,10.619152499999999
1743,11.2435125
1933,0.0
2036,0.0
2038,481.80600450000005
2,3, 1,20, 0,21, 0.00,60.00,Wednesday
7,6.099999999999998
703,22.20323794793944
704,21.108966843778679
705,21.091888656864805
706,21.101352760353877
707,21.196550300492157
1682,0.0
1724,11.4852375
1730,16.885
1734,0.0
1737,14.158869999999999
1743,7.495675
1933,0.0
2036,0.0
2038,588.8740055000001
2,3, 1,20, 0,22, 0.00,60.00,Wednesday
7,6.099999999999998
703,22.101423287618773
704,21.090765926749456
705,21.206648101578929
706,21.120828400724446
707,21.109723888466957
1682,0.0
1724,15.31365
1730,10.131
1734,0.0
1737,21.238305
1743,18.7391875
1933,0.0
2036,0.0
2038,749.476007
2,3, 1,20, 0,23, 0.00,60.00,Wednesday
7,6.099999999999998
703,21.970071265731833
704,21.01353804240936
705,21.024397690836403
706,21.012753558766
707,21.074717118848633
1682,0.0
1724,34.45571250000001
1730,23.639000000000004
1734,0.0
1737,35.397175
1743,18.7391875
1933,0.0
2036,0.0
2038,803.0100075
2,3, 1,20, 0,24, 0.00,60.00,Wednesday
7,5.8375
703,21.840524622620359
704,21.041537559095297
705,21.087016490701179
706,21.030291347232415
707,21.091403429425414
1682,0.0
1724,26.798887500000008
1730,16.885
1734,0.0
1737,24.7780225
1743,18.7391875
1933,0.0
2036,0.0
2038,803.0100075
2,4, 1,21, 0, 1, 0.00,60.00,Thursday
7,5.599999999999998
703,21.64576701469253
704,20.4111830497636
705,20.34569368568041
706,20.49535850485142
707,20.358341003425254
1682,0.0
1724,0.0
1730,0.0
1734,0.0
1737,0.0
1743,0.0
1933,0.0
2036,0.0
2038,0.0
2,4, 1,21, 0, 2, 0.00,60.00,Thursday
7,5.284999999999999
703,21.421872255144775
704,19.30009405087498
705,19.22276336168016
706,19.3542013818561
707,19.253865831255145
1682,0.0
1724,0.0
1730,0.0
1734,0.0
1737,0.0
1743,0.0
1933,0.0
2036,0.0
2038,0.0
2,4, 1,21, 0, 3, 0.00,60.00,Thursday
7,4.422500000000001
703,21.166504869757
704,18.75574805154943
705,18.666554554161967
706,18.805766881772287
707,18.70460484855316
1682,0.0
1724,0.0
1730,0.0
1734,0.0
1737,0.0
1743,0.0
1933,0.0
2036,0.0
2038,0.0
2,4, 1,21, 0, 4, 0.00,60.00,Thursday
7,4.1625
703,20.929072133334068
704,18.56231927222234
705,18.485240580098588
706,18.609647190030779
707,18.483016337995385
1682,0.0
1724,0.0
1730,0.0
1734,0.0
1737,0.0
1743,0.0
1933,0.0
2036,0.0
2038,0.0
2,4, 1,21, 0, 5, 0.00,60.00,Thursday
7,4.4
703,20.731520229170738
704,18.34927080075005
705,18.273464016717413
706,18.393240394840754
707,18.253001754046588
1682,0.0
1724,0.0
1730,0.0
1734,0.0
1737,0.0
1743,0.0
1933,0.0
2036,0.0
2038,0.0
2,4, 1,21, 0, 6, 0.00,60.00,Thursday
7,4.1375
703,20.572369113985059
704,18.113217866114373
705,18.033925542294548
706,18.155880885283488
707,18.00573519753697
1682,0.0
1724,0.0
1730,0.0
1734,0.0
1737,0.0
1743,0.0
1933,0.0
2036,0.0
2038,0.0
2,4, 1,21, 0, 7, 0.00,60.00,Thursday
7,3.9
703,20.56622595885444
704,18.13729764438643
705,18.062168347505293
706,18.186173930174897
707,18.027898981261367
1682,0.0
1724,0.0
1730,0.0
1734,0.0
1737,0.0
1743,0.0
1933,0.0
2036,0.0
2038,0.0
2,4, 1,21, 0, 8, 0.00,60.00,Thursday
7,3.9
703,21.34155547989885
704,19.92363420755346
705,19.99595867788944
706,19.983029879515717
707,19.972710076150656
1682,50.90492
1724,76.56825000000002
1730,67.53999999999999
1734,0.0
1737,70.79434999999998
1743,74.95675000000003
1933,0.0
2036,0.0
2038,1070.68001
2,4, 1,21, 0, 9, 0.00,60.00,Thursday
7,4.1625
703,22.261267168327966
704,21.516846940023819
705,21.581649947845479
706,21.554458130160115
707,21.569672608685538
1682,0.0
1724,0.0
1730,0.0
1734,0.0
1737,0.0
1743,0.0
1933,0.0
2036,0.0
2038,0.0
2,4, 1,21, 0,10, 0.00,60.00,Thursday
7,4.4
703,22.933771765482296
704,21.743551965843559
705,21.9711945988888
706,21.890862342124124
707,21.966824858957076
1682,0.0
1724,0.0
1730,0.0
1734,0.0
1737,0.0
1743,0.0
1933,0.0
2036,0.0
2038,0.0
2,4, 1,21, 0,11, 0.00,60.00,Thursday
7,4.714999999999999
703,23.35574502633927
704,21.566002599843466
705,22.192247882860799
706,21.85959561304543
707,22.23723748035682
1682,0.0
1724,0.0
1730,0.0
1734,0.0
1737,0.0
1743,0.0
1933,0.0
2036,0.0
2038,0.0
2,4, 1,21, 0,12, 0.00,60.00,Thursday
7,5.315
703,23.690888757094933
704,21.813183884318279
705,22.452177298687475
706,22.1423556066789
707,22.542184756366738
1682,0.0
1724,0.0
1730,0.0
1734,0.0
1737,0.0
1743,0.0
1933,0.0
2036,0.0
2038,0.0
2,4, 1,21, 0,13, 0.00,60.00,Thursday
7,5.599999999999998
703,23.797059968843734
704,21.962855988498615
705,22.404833800701338
706,22.402463706971369
707,22.535513353353417
1682,0.0
1724,0.0
1730,0.0
1734,0.0
1737,0.0
1743,0.0
1933,0.0
2036,0.0
2038,0.0
2,4, 1,21, 0,14, 0.00,60.00,Thursday
7,5.8625
703,24.25091241842883
704,22.420852346189606
705,22.710149671267858
706,22.934916612514419
707,22.845379385529914
1682,0.0
1724,0.0
1730,0.0
1734,0.0
1737,0.0
1743,0.0
1933,0.0
2036,0.0
2038,0.0
2,4, 1,21, 0,15, 0.00,60.00,Thursday
7,6.414999999999997
703,24.6414413899143
704,22.73989212592921
705,22.940441734519888
706,23.274473701320909
707,23.09120151529162
1682,0.0
1724,0.0
1730,0.0
1734,0.0
1737,0.0
1743,0.0
1933,0.0
2036,0.0
2038,0.0
2,4, 1,21, 0,16, 0.00,60.00,Thursday
7,6.700000000000001
703,24.892562602514123
704,22.87199781404133
705,23.030988236595264
706,23.4276705456548
707,23.256719315347359
1682,0.0
1724,0.0
1730,0.0
1734,0.0
1737,0.0
1743,0.0
1933,0.0
2036,0.0
2038,0.0
2,4, 1,21, 0,17, 0.00,60.00,Thursday
7,6.700000000000001
703,25.085332493226013
704,22.894422680296203
705,23.02752231346407
706,23.486240989556579
707,23.434798537881734
1682,0.0
1724,0.0
1730,0.0
1734,0.0
1737,0.0
1743,0.0
1933,0.0
2036,0.0
2038,0.0
2,4, 1,21, 0,18, 0.00,60.00,Thursday
7,6.700000000000001
703,24.575444994956766
704,22.21040658313863
705,22.323059520029763
706,22.841490211379058
707,23.07537517794767
1682,0.0
1724,0.0
1730,0.0
1734,0.0
1737,0.0
1743,0.0
1933,0.0
2036,0.0
2038,0.0
2,4, 1,21, 0,19, 0.00,60.00,Thursday
7,5.807499999999999
703,23.210048566540278
704,21.41528405491934
705,21.518479819947357
706,21.894648528980438
707,21.98902541305504
1682,114.53607
1724,0.0
1730,0.0
1734,0.0
1737,0.0
1743,0.0
1933,5878.001004335592
2036,1181.611404
2038,0.0
2,4, 1,21, 0,20, 0.00,60.00,Thursday
7,5.315
703,22.96289782772147
704,20.794545052237888
705,20.886418420433004
706,21.191483585165647
707,21.194907078511066
1682,0.0
1724,0.0
1730,0.0
1734,0.0
1737,0.0
1743,0.0
1933,0.0
2036,0.0
2038,0.0
2,4, 1,21, 0,21, 0.00,60.00,Thursday
7,4.7075
703,22.90293358449582
704,21.243869876158635
705,21.34236937496395
706,21.197624308998713
707,21.37453867820541
1682,0.0
1724,11.4852375
1730,10.131
1734,0.0
1737,14.158869999999999
1743,7.495675
1933,0.0
2036,0.0
2038,321.204003
2,4, 1,21, 0,22, 0.00,60.00,Thursday
7,3.5849999999999997
703,22.78476020285988
704,20.497159581438305
705,20.60178506990844
706,20.85246682868358
707,20.593123832940618
1682,0.0
1724,0.0
1730,0.0
1734,0.0
1737,0.0
1743,0.0
1933,0.0
2036,0.0
2038,0.0
2,4, 1,21, 0,23, 0.00,60.00,Thursday
7,2.722500000000001
703,22.5084510788955
704,19.635554369768383
705,19.65790538064099
706,19.861074281807203
707,19.713660943556396
1682,0.0
1724,0.0
1730,0.0
1734,0.0
1737,0.0
1743,0.0
1933,0.0
2036,0.0
2038,0.0
2,4, 1,21, 0,24, 0.00,60.00,Thursday
7,1.6225
703,22.16493134270231
704,19.065023472180536
705,19.06542140769586
706,19.277282372914109
707,19.12384086651706
1682,0.0
1724,0.0
1730,0.0
1734,0.0
1737,0.0
1743,0.0
1933,0.0
2036,0.0
2038,0.0
2,5, 1,22, 0, 1, 0.00,60.00,Friday
7,1.9925000000000004
703,21.785028107095728
704,20.18710225090163
705,20.2587428742396
706,20.316862904068587
707,20.30149074997484
1682,0.0
1724,76.56825000000002
1730,67.53999999999999
1734,0.0
1737,70.79434999999998
1743,74.95675000000003
1933,0.0
2036,0.0
2038,1070.68001
2,5, 1,22, 0, 2, 0.00,60.00,Friday
7,2.4850000000000005
703,21.630650541565549
704,20.863484990528368
705,20.945005034512194
706,20.952858220409426
707,20.948030977998149
1682,0.0
1724,72.73983750000002
1730,60.78599999999999
1734,0.0
1737,70.79434999999998
1743,67.46107500000002
1933,0.0
2036,0.0
2038,1070.68001
2,5, 1,22, 0, 3, 0.00,60.00,Friday
7,2.515
703,21.574361424691014
704,20.971795394068683