Program Version,EnergyPlus, Version 9.3.0-baff08990c, YMD=2021.12.16 05:15
1,5,Environment Title[],Latitude[deg],Longitude[deg],Time Zone[],Elevation[m]
2,8,Day of Simulation[],Month[],Day of Month[],DST Indicator[1=yes 0=no],Hour[],StartMinute[],EndMinute[],DayType
3,5,Cumulative Day of Simulation[],Month[],Day of Month[],DST Indicator[1=yes 0=no],DayType  ! When Daily Report Variables Requested
4,2,Cumulative Days of Simulation[],Month[]  ! When Monthly Report Variables Requested
5,1,Cumulative Days of Simulation[] ! When Run Period Report Variables Requested
6,1,Calendar Year of Simulation[] ! When Annual Report Variables Requested
46,1,CORE_TOP,Zone Total Internal Total Heating Rate [W] !Hourly
703,1,CORE_TOP,Zone Mean Air Temperature [C] !Hourly
704,1,PERIMETER_TOP_ZN_3,Zone Mean Air Temperature [C] !Hourly
705,1,PERIMETER_TOP_ZN_2,Zone Mean Air Temperature [C] !Hourly
706,1,PERIMETER_TOP_ZN_1,Zone Mean Air Temperature [C] !Hourly
707,1,PERIMETER_TOP_ZN_4,Zone Mean Air Temperature [C] !Hourly
1682,1,CORE_TOP_LOTEMP,Zone Radiant HVAC Pump Electric Power [W] !Hourly
1724,1,PERI1_TOP_LOTEMP,Zone Radiant HVAC Pump Electric Power [W] !Hourly
1730,1,PERI2_TOP_LOTEMP,Zone Radiant HVAC Pump Electric Power [W] !Hourly
1736,1,PERI3_TOP_LOTEMP,Zone Radiant HVAC Pump Electric Power [W] !Hourly
1742,1,PERI4_TOP_LOTEMP,Zone Radiant HVAC Pump Electric Power [W] !Hourly
1932,1,COOLSYS1 CHILLER1,Chiller Electric Power [W] !Hourly
2035,1,CHILLED WATER LOOP CHW SUPPLY PUMP2,Pump Electric Power [W] !Hourly
End of Data Dictionary
1,RUNPERIOD 1,  30.00, -95.37,  -6.00,  29.00
2,1, 1, 1, 0, 1, 0.00,60.00,Holiday
46,2170.31579314564
703,19.888607026480913
704,18.93325884862525
705,18.9395189162909
706,18.973089455947723
707,18.94193639020602
1682,0.0
1724,57.42618750000001
1730,54.032
1736,70.79434999999998
1742,68.0
1932,0.0
2035,0.0
2,1, 1, 1, 0, 2, 0.00,60.00,Holiday
46,2170.31579314564
703,19.804367564792608
704,18.907574368883439
705,18.918452509579966
706,18.977125299871639
707,18.949075812110324
1682,0.0
1724,76.56825000000002
1730,67.53999999999999
1736,70.79434999999998
1742,80.0
1932,0.0
2035,0.0
2,1, 1, 1, 0, 3, 0.00,60.00,Holiday
46,2170.31579314564
703,19.726347974810943
704,18.91333895353915
705,18.95652307296833
706,18.986203045168769
707,18.966962931892025
1682,0.0
1724,76.56825000000002
1730,67.53999999999999
1736,70.79434999999998
1742,72.0
1932,0.0
2035,0.0
2,1, 1, 1, 0, 4, 0.00,60.00,Holiday
46,2170.31579314564
703,19.658312425800007
704,18.91310156330513
705,18.976046890238899
706,18.970796722020848
707,18.912156023412999
1682,0.0
1724,76.56825000000002
1730,60.78599999999999
1736,70.79434999999998
1742,80.0
1932,0.0
2035,0.0
2,1, 1, 1, 0, 5, 0.00,60.00,Holiday
46,2170.31579314564
703,19.594771591999835
704,18.92386804912061
705,18.890061712681488
706,18.962419236753598
707,18.961273158179418
1682,0.0
1724,76.56825000000002
1730,67.53999999999999
1736,70.79434999999998
1742,68.0
1932,0.0
2035,0.0
2,1, 1, 1, 0, 6, 0.00,60.00,Holiday
46,2170.31579314564
703,19.537085227468958
704,18.952003394921517
705,18.94303398308062
706,18.96626823110333
707,18.853087291089389
1682,0.0
1724,76.56825000000002
1730,64.16299999999998
1736,70.79434999999998
1742,80.0
1932,0.0
2035,0.0
2,1, 1, 1, 0, 7, 0.00,60.00,Holiday
46,2879.2057968242645
703,18.68931904775594
704,18.452633667850678
705,18.320290910826807
706,18.453195994102836
707,18.515268125939796
1682,216.34591000000007
1724,76.56825000000002
1730,64.16299999999998
1736,70.79434999999998
1742,72.0
1932,0.0
2035,0.0
2,1, 1, 1, 0, 8, 0.00,60.00,Holiday
46,2879.2057968242645
703,18.667093533267978
704,18.76700681332912
705,18.969429258384609
706,18.785020797475047
707,18.711041385800539
1682,254.52460000000003
1724,61.25460000000002
1730,33.769999999999999
1736,63.71491499999998
1742,64.0
1932,0.0
2035,0.0
2,1, 1, 1, 0, 9, 0.00,60.00,Holiday
46,2879.2057968242645
703,18.84699615977977
704,18.825285688391128
705,19.880676012886207
706,19.316239277680848
707,18.78952270745079
1682,254.52460000000003
1724,11.4852375
1730,0.0
1736,60.17519749999999
1742,68.0
1932,0.0
2035,0.0
2,1, 1, 1, 0,10, 0.00,60.00,Holiday
46,2879.2057968242645
703,19.00157714594435
704,18.946405107599614
705,20.555865323416528
706,20.426832068151634
707,18.927949313076004
1682,114.53607
1724,3.8284125
1730,0.0
1736,53.0957625
1742,64.0
1932,146.65020650828255
2035,131.290156
2,1, 1, 1, 0,11, 0.00,60.00,Holiday
46,2879.2057968242645
703,19.070232220646959
704,19.025932187096918
705,20.306887066182058
706,21.664594564935528
707,19.028380271101417
1682,0.0
1724,76.56825000000002
1730,0.0
1736,14.158869999999999
1742,24.0
1932,3651.540228449792
2035,2625.803119999999
2,1, 1, 1, 0,12, 0.00,60.00,Holiday
46,2879.2057968242645
703,19.37037833589955
704,19.263751057268658
705,20.073668152871016
706,22.67289568886087
707,19.297882628739388
1682,0.0
1724,76.56825000000002
1730,0.0
1736,0.0
1742,0.0
1932,4555.793945467927
2035,2625.803119999999
2,1, 1, 1, 0,13, 0.00,60.00,Holiday
46,2879.2057968242645
703,19.727796335250895
704,19.628945018327206
705,20.418673342674287
706,23.60043804310664
707,19.716387553020714
1682,0.0
1724,76.56825000000002
1730,0.0
1736,0.0
1742,0.0
1932,6026.192622786935
2035,2625.803119999999
2,1, 1, 1, 0,14, 0.00,60.00,Holiday
46,2879.2057968242645
703,19.872577530413066
704,19.846697313494198
705,20.540653388736105
706,23.93345722594649
707,19.853931412756958
1682,0.0
1724,76.56825000000002
1730,0.0
1736,0.0
1742,0.0
1932,7036.976302975903
2035,2625.803119999999
2,1, 1, 1, 0,15, 0.00,60.00,Holiday
46,2879.2057968242645
703,19.959743292460268
704,19.97865819940298
705,20.597761980382765
706,23.750063755868927
707,20.47726589060318
1682,0.0
1724,76.56825000000002
1730,0.0
1736,0.0
1742,0.0
1932,6444.339714489358
2035,2625.803119999999
2,1, 1, 1, 0,16, 0.00,60.00,Holiday
46,2879.2057968242645
703,20.005418725057959
704,20.025242144596889
705,20.55623794821559
706,23.057928398086838
707,21.36873942429954
1682,0.0
1724,76.56825000000002
1730,0.0
1736,0.0
1742,80.0
1932,7869.519657378887
2035,2625.803119999999
2,1, 1, 1, 0,17, 0.00,60.00,Holiday
46,2879.2057968242645
703,20.004939390164294
704,19.944705317113085
705,20.388698454938934
706,22.07781261120572
707,21.371158494578606
1682,0.0
1724,76.56825000000002
1730,0.0
1736,0.0
1742,80.0
1932,5657.483282947147
2035,2625.803119999999
2,1, 1, 1, 0,18, 0.00,60.00,Holiday
46,2879.2057968242645
703,19.719532055969393
704,19.487245278121667
705,19.84724113499687
706,20.83016041765861
707,20.245000314142858
1682,0.0
1724,34.45571250000001
1730,0.0
1736,0.0
1742,8.0
1932,1381.9459970993012
2035,1181.611404
2,1, 1, 1, 0,19, 0.00,60.00,Holiday
46,2170.31579314564
703,19.224694250638664
704,18.8481321515642
705,19.083444166171444
706,19.690766632161997
707,18.997854310357977
1682,0.0
1724,0.0
1730,23.639000000000004
1736,56.635479999999997
1742,40.0
1932,0.0
2035,0.0
2,1, 1, 1, 0,20, 0.00,60.00,Holiday
46,2170.31579314564
703,19.00162379442783
704,18.553776825131345
705,18.671682105815674
706,19.06441723562918
707,18.623524701987856
1682,127.26230000000001
1724,26.798887500000008
1730,67.53999999999999
1736,70.79434999999998
1742,80.0
1932,0.0
2035,0.0
2,1, 1, 1, 0,21, 0.00,60.00,Holiday
46,2170.31579314564
703,18.938171253581609
704,18.448550161028025
705,18.55085950899826
706,18.820914986581348
707,18.526985841640735
1682,254.52460000000003
1724,76.56825000000002
1730,67.53999999999999
1736,70.79434999999998
1742,80.0
1932,0.0
2035,0.0
2,1, 1, 1, 0,22, 0.00,60.00,Holiday
46,2170.31579314564
703,18.95404161540264
704,18.37986219241477
705,18.61294525291826
706,18.68464808205106
707,18.76595784426916
1682,254.52460000000003
1724,76.56825000000002
1730,67.53999999999999
1736,70.79434999999998
1742,68.0
1932,0.0
2035,0.0
2,1, 1, 1, 0,23, 0.00,60.00,Holiday
46,2170.31579314564
703,19.836501838969207
704,18.906748651514865
705,19.18874724074975
706,19.09695209235974
707,19.0780103812718
1682,12.72623
1724,11.4852375
1730,13.508000000000001
1736,56.635479999999997
1742,28.0
1932,0.0
2035,0.0
2,1, 1, 1, 0,24, 0.00,60.00,Holiday
46,2170.31579314564
703,19.961391419084646
704,18.97560472509145
705,18.961101715491109
706,19.04075739381209
707,18.978435219610668
1682,0.0
1724,0.0
1730,57.40899999999999
1736,49.556045
1742,56.0
1932,0.0
2035,0.0
2,2, 1, 2, 0, 1, 0.00,60.00,Tuesday
46,2780.82959564914
703,19.95377597114866
704,18.87927264379816
705,18.88134329111459
706,18.92768789315479
707,18.88353639776162
1682,0.0
1724,57.42618750000001
1730,54.032
1736,70.79434999999998
1742,68.0
1932,0.0
2035,0.0
2,2, 1, 2, 0, 2, 0.00,60.00,Tuesday
46,2780.82959564914
703,19.913209442097594
704,18.83598810515708
705,18.843561071873727
706,18.91937102303357
707,18.875338786980146
1682,0.0
1724,68.91142500000002
1730,67.53999999999999
1736,70.79434999999998
1742,80.0
1932,0.0
2035,0.0
2,2, 1, 2, 0, 3, 0.00,60.00,Tuesday
46,2780.82959564914
703,19.870374277655988
704,18.911435083586914
705,18.953732943675033
706,18.905484415796889
707,18.874583840559393
1682,0.0
1724,61.25460000000002
1730,67.53999999999999
1736,70.79434999999998
1742,60.0
1932,0.0
2035,0.0
2,2, 1, 2, 0, 4, 0.00,60.00,Tuesday
46,2780.82959564914
703,19.814232228257283
704,18.77593961817554
705,18.859789077906087
706,18.736713861991477
707,18.707648625164084
1682,0.0
1724,76.56825000000002
1730,67.53999999999999
1736,70.79434999999998
1742,80.0
1932,0.0
2035,0.0
2,2, 1, 2, 0, 5, 0.00,60.00,Tuesday
46,2780.82959564914
703,19.759366069537227
704,18.75275842504688
705,18.893293363345316
706,18.707458772908024
707,18.789458072524064
1682,0.0
1724,76.56825000000002
1730,54.032
1736,70.79434999999998
1742,80.0
1932,0.0
2035,0.0
2,2, 1, 2, 0, 6, 0.00,60.00,Tuesday
46,3119.6039812842798
703,19.7272464472369
704,18.81980182854418
705,18.723089090779525
706,18.742686090715439
707,18.78978578531602
1682,0.0
1724,76.56825000000002
1730,67.53999999999999
1736,70.79434999999998
1742,64.0
1932,0.0
2035,0.0
2,2, 1, 2, 0, 7, 0.00,60.00,Tuesday
46,4245.451607531921
703,18.897047658662069
704,18.64940792321586
705,18.667175115961294
706,18.422241947436495
707,18.512522697365577
1682,190.89345000000007
1724,76.56825000000002
1730,57.40899999999999
1736,70.79434999999998
1742,76.0
1932,0.0
2035,0.0
2,2, 1, 2, 0, 8, 0.00,60.00,Tuesday
46,6049.250893545528
703,18.90152214588934
704,18.915127932710978
705,18.918860382037438
706,18.768258250776318
707,18.89740197116736
1682,254.52460000000003
1724,57.42618750000001
1730,43.900999999999999
1736,57.81538583333332
1742,65.33333333333333
1932,0.0
2035,0.0
2,2, 1, 2, 0, 9, 0.00,60.00,Tuesday
46,18101.736647504953
703,19.767639129757055
704,19.248297868000443
705,19.722255828968
706,19.567142465444527
707,19.140699666474818
1682,4.242076666666667
1724,2.5522750000000005
1730,1.1256666666666669
1736,3.539717499999999
1742,0.0
1932,0.0
2035,0.0
2,2, 1, 2, 0,10, 0.00,60.00,Tuesday
46,18101.736647504957
703,20.18502955126649
704,19.46456113494854
705,20.167871002960444
706,20.182059886942314
707,19.258126136027668
1682,0.0
1724,0.0
1730,0.0
1736,0.0
1742,0.0
1932,0.0
2035,0.0
2,2, 1, 2, 0,11, 0.00,60.00,Tuesday
46,18265.019990212222
703,20.408033815485589
704,19.77203987095769
705,20.361212265993875
706,20.832836474385368
707,19.562432182260375
1682,0.0
1724,19.1420625
1730,0.0
1736,0.0
1742,0.0
1932,736.6545403380617
2035,656.45078
2,2, 1, 2, 0,12, 0.00,60.00,Tuesday
46,18101.736647504957
703,20.5895604074295
704,20.129217025603
705,20.540235003237407
706,21.288117964045964
707,19.92346633579286
1682,0.0
1724,76.56825000000002
1730,0.0
1736,0.0
1742,0.0
1932,2981.3049246144307
2035,2625.803119999999
2,2, 1, 2, 0,13, 0.00,60.00,Tuesday
46,14572.507325244462
703,20.614269852395006
704,20.34180906043555
705,20.686347147908355
706,21.550680329383654
707,20.17368914626922
1682,0.0
1724,76.56825000000002
1730,0.0
1736,0.0
1742,0.0
1932,3100.230236732914
2035,2625.803119999999
2,2, 1, 2, 0,14, 0.00,60.00,Tuesday
46,18101.736647504953
703,21.12009500012804
704,20.85700360402509
705,21.003038461846839
706,21.87131413638855
707,20.700921633553695
1682,203.61968000000008
1724,76.56825000000002
1730,43.900999999999999
1736,0.0
1742,0.0
1932,9561.788628078319
2035,2625.803119999999
2,2, 1, 2, 0,15, 0.00,60.00,Tuesday
46,18265.019990212222
703,21.224815305551237
704,20.998682702683156
705,20.993155473291446
706,22.75595614142457
707,21.20745069007126
1682,254.52460000000003
1724,76.56825000000002
1730,27.016000000000003
1736,35.397175
1742,48.0
1932,11637.204478167478
2035,2625.803119999999
2,2, 1, 2, 0,16, 0.00,60.00,Tuesday
46,18101.736647504957
703,21.261768583359545
704,20.964796175758818
705,20.958602868576116
706,22.629353860055646
707,21.758183918000709
1682,254.52460000000003
1724,76.56825000000002
1730,23.639000000000004
1736,21.238305
1742,80.0
1932,12486.010806282522
2035,2625.803119999999
2,2, 1, 2, 0,17, 0.00,60.00,Tuesday
46,18101.736647504957
703,21.0496033337146
704,20.71148817493161
705,20.669898078557908
706,21.66287130644458
707,21.167671837628079
1682,178.16722000000005
1724,76.56825000000002
1730,0.0
1736,0.0
1742,56.0
1932,8217.04738071452
2035,2625.803119999999
2,2, 1, 2, 0,18, 0.00,60.00,Tuesday
46,8609.530172617446
703,20.096064657323156
704,19.820738037751906
705,19.765449837350709
706,20.356394761964123
707,19.919368597435559
1682,0.0
1724,3.8284125
1730,0.0
1736,0.0
1742,0.0
1932,123.35812191082417
2035,131.290156
2,2, 1, 2, 0,19, 0.00,60.00,Tuesday
46,5413.9869089617409
703,19.530613777852218
704,19.253291210090869
705,19.185228826154935
706,19.577470338973403
707,19.169797952760196
1682,0.0
1724,0.0
1730,0.0
1736,0.0
1742,8.0
1932,0.0
2035,0.0
2,2, 1, 2, 0,20, 0.00,60.00,Tuesday
46,5413.986908961739
703,19.321190641495869
704,18.97599819905067
705,18.943328790405354
706,19.20409002380932
707,18.93728198830415
1682,0.0
1724,0.0
1730,64.16299999999998
1736,46.0163275
1742,80.0
1932,0.0
2035,0.0
2,2, 1, 2, 0,21, 0.00,60.00,Tuesday
46,4829.719258246828
703,19.194394902700336
704,18.943398582135076
705,18.94802583629555
706,19.016736520341135
707,18.953007619784228
1682,0.0
1724,30.62730000000001
1730,67.53999999999999
1736,70.79434999999998
1742,80.0
1932,0.0
2035,0.0
2,2, 1, 2, 0,22, 0.00,60.00,Tuesday
46,4829.719258246828
703,19.12274772726355
704,18.988661280086697
705,18.981701348901443
706,19.001837075772845
707,18.975019133214283
1682,0.0
1724,38.28412500000001
1730,57.40899999999999
1736,56.635479999999997
1742,68.0
1932,0.0
2035,0.0
2,2, 1, 2, 0,23, 0.00,60.00,Tuesday
46,3927.819615240021
703,20.112624625326789
704,19.50566057515879
705,19.53877431033564
706,19.546226394842955
707,19.597440841929619
1682,0.0
1724,0.0
1730,3.3770000000000004
1736,3.5397174999999998
1742,4.0
1932,0.0
2035,0.0
2,2, 1, 2, 0,24, 0.00,60.00,Tuesday
46,3635.6857898825685
703,20.45027390953295
704,19.56111461787065
705,19.57473271062525
706,19.65008341164432
707,19.634763966277924
1682,0.0
1724,0.0
1730,0.0
1736,0.0
1742,0.0
1932,0.0
2035,0.0
2,3, 1, 3, 0, 1, 0.00,60.00,Wednesday
46,2780.82959564914
703,20.389074166246674
704,19.413510881326237
705,19.4126648450307
706,19.509400213689525
707,19.468542461545746
1682,0.0
1724,0.0
1730,0.0
1736,0.0
1742,0.0
1932,0.0
2035,0.0
2,3, 1, 3, 0, 2, 0.00,60.00,Wednesday
46,2780.82959564914
703,20.35094880819927
704,19.33601239090286
705,19.32565428692628
706,19.437967532129514
707,19.37558891077326
1682,0.0
1724,0.0
1730,0.0
1736,0.0
1742,0.0
1932,0.0
2035,0.0
2,3, 1, 3, 0, 3, 0.00,60.00,Wednesday
46,2780.82959564914
703,20.324476405160178
704,19.30791404174505
705,19.29203331571867
706,19.407113630028037
707,19.335741282636709
1682,0.0
1724,0.0
1730,0.0
1736,0.0
1742,0.0
1932,0.0
2035,0.0
2,3, 1, 3, 0, 4, 0.00,60.00,Wednesday
46,2780.82959564914
703,20.312079228808835
704,19.398368592070719
705,19.382421900821379
706,19.494241073151078
707,19.423094024028879
1682,0.0
1724,0.0
1730,0.0
1736,0.0
1742,0.0
1932,0.0
2035,0.0
2,3, 1, 3, 0, 5, 0.00,60.00,Wednesday
46,2780.82959564914
703,20.329399463229835
704,19.463749176417
705,19.450581513459409
706,19.554132982439083
707,19.477627528066166
1682,0.0
1724,0.0
1730,0.0
1736,0.0
1742,0.0
1932,0.0
2035,0.0
2,3, 1, 3, 0, 6, 0.00,60.00,Wednesday
46,3119.6039812842798
703,20.36039950757923
704,19.394989517227044
705,19.37164508606893
706,19.468261263652385
707,19.392886187086448
1682,0.0
1724,0.0
1730,0.0
1736,0.0
1742,0.0
1932,0.0
2035,0.0
2,3, 1, 3, 0, 7, 0.00,60.00,Wednesday
46,4245.451607531921
703,19.67344638901985
704,19.069195582463715
705,19.0489886416698
706,19.158964880598967
707,19.036318992647858
1682,0.0
1724,0.0
1730,20.262000000000005
1736,0.0
1742,32.0
1932,0.0
2035,0.0
2,3, 1, 3, 0, 8, 0.00,60.00,Wednesday
46,6049.250893545528
703,19.657633385623876
704,19.134144910492855
705,19.238561203453725
706,19.248758860501647
707,19.162245314875205
1682,0.0
1724,0.0
1730,0.0
1736,0.0
1742,0.0
1932,622.3959286053557
2035,1444.191716
2,3, 1, 3, 0, 9, 0.00,60.00,Wednesday
46,18101.736647504953
703,20.59869709667575
704,19.974213764481488
705,20.030782049710873
706,20.086277534992246
707,19.92425391831457
1682,0.0
1724,0.0
1730,0.0
1736,0.0
1742,0.0
1932,545.7897753906148
2035,1312.90156
2,3, 1, 3, 0,10, 0.00,60.00,Wednesday
46,18101.736647504957
703,20.867328145692846
704,20.18278013534796
705,20.269191652972667
706,20.427634436442106
707,20.044500910439195
1682,0.0
1724,0.0
1730,0.0
1736,0.0
1742,0.0
1932,0.0
2035,0.0
2,3, 1, 3, 0,11, 0.00,60.00,Wednesday
46,18265.019990212222
703,20.70888214262104
704,20.129214195195524
705,20.459877398001639
706,21.240445984004528
707,19.995109698174639
1682,0.0
1724,45.940950000000018
1730,0.0
1736,0.0
1742,0.0
1932,1816.7653894148876
2035,1575.481872
2,3, 1, 3, 0,12, 0.00,60.00,Wednesday
46,18101.736647504953
703,21.002158507170156
704,20.50354759699109
705,20.705402142433664
706,22.750692854913454
707,20.40883933435247
1682,114.53607
1724,76.56825000000002
1730,3.3770000000000004
1736,0.0
1742,0.0
1932,7065.32499382082
2035,2625.803119999999
2,3, 1, 3, 0,13, 0.00,60.00,Wednesday
46,14572.507325244462
703,20.946233549504116
704,20.620423586023585
705,20.866587400423528
706,22.125606727652899
707,20.563306688956496
1682,76.35738
1724,76.56825000000002
1730,3.3770000000000004
1736,0.0
1742,0.0
1932,5683.852415343117
2035,2625.803119999999
2,3, 1, 3, 0,14, 0.00,60.00,Wednesday
46,18101.736647504957
703,20.971859853589238
704,20.71006130154539
705,20.84842020454562
706,21.451472427587765
707,20.60911762207354
1682,76.35738
1724,76.56825000000002
1730,0.0
1736,0.0
1742,0.0
1932,4589.9318511255819
2035,2625.803119999999
2,3, 1, 3, 0,15, 0.00,60.00,Wednesday
46,18265.019990212222
703,20.93474499247334
704,20.56595705069912
705,20.64519325700332
706,21.042517377468309
707,20.455126388309059
1682,0.0
1724,49.769362500000017
1730,0.0
1736,0.0
1742,0.0
1932,1594.1660644235763
2035,1706.772028
2,3, 1, 3, 0,16, 0.00,60.00,Wednesday
46,18101.736647504957
703,20.91786556941661
704,20.41172467823918
705,20.45814669594415
706,20.8168912856318
707,20.352424569126148
1682,0.0
1724,0.0
1730,0.0
1736,0.0
1742,0.0
1932,0.0
2035,0.0
2,3, 1, 3, 0,17, 0.00,60.00,Wednesday
46,18101.736647504957
703,20.901189635550858
704,20.25171971807682
705,20.27243510986789
706,20.58626285132376
707,20.188459491466984
1682,0.0
1724,0.0
1730,0.0
1736,0.0
1742,0.0
1932,0.0
2035,0.0
2,3, 1, 3, 0,18, 0.00,60.00,Wednesday
46,8609.530172617446
703,20.170054361698108
704,19.58742888162228
705,19.603331796713407
706,19.811977174757748
707,19.51792329860865
1682,0.0
1724,0.0
1730,0.0
1736,0.0
1742,0.0
1932,0.0
2035,0.0
2,3, 1, 3, 0,19, 0.00,60.00,Wednesday
46,5413.9869089617409
703,19.684971070051426
704,19.089509137621609
705,19.09387431845053
706,19.25913266464297
707,18.990860387098729
1682,0.0
1724,0.0
1730,13.508000000000001
1736,14.158869999999999
1742,44.0
1932,0.0
2035,0.0
2,3, 1, 3, 0,20, 0.00,60.00,Wednesday
46,5413.9869089617409
703,19.49648322512504
704,18.89645151438942
705,18.894703655641949
706,18.9967283054339
707,18.843365759000745
1682,0.0
1724,38.28412500000001
1730,67.53999999999999
1736,70.79434999999998
1742,80.0
1932,0.0
2035,0.0
2,3, 1, 3, 0,21, 0.00,60.00,Wednesday
46,4829.719258246828
703,19.378928401943054
704,18.863456569568556
705,18.870663979973054
706,18.931831350479408
707,18.84234036296875
1682,0.0
1724,76.56825000000002
1730,67.53999999999999
1736,70.79434999999998
1742,80.0
1932,0.0
2035,0.0
2,3, 1, 3, 0,22, 0.00,60.00,Wednesday
46,4829.719258246828
703,19.291688902648873
704,18.857932564721627
705,18.889233340378565
706,18.931661246839789
707,18.94324795526609
1682,0.0
1724,76.56825000000002
1730,67.53999999999999
1736,70.79434999999998
1742,64.0
1932,0.0
2035,0.0
2,3, 1, 3, 0,23, 0.00,60.00,Wednesday
46,3927.819615240021
703,20.229225686902976
704,19.054315964499208
705,19.114172014027976
706,19.105886531093938
707,19.086795838543759
1682,0.0
1724,7.656825
1730,13.508000000000001
1736,17.6985875
1742,20.0
1932,0.0
2035,0.0
2,3, 1, 3, 0,24, 0.00,60.00,Wednesday
46,3635.6857898825685
703,20.4690764870677
704,18.903521992312848
705,18.9081757250583
706,18.935009680250738
707,18.9035796631973
1682,0.0
1724,76.56825000000002
1730,67.53999999999999
1736,70.79434999999998
1742,80.0
1932,0.0
2035,0.0
2,4, 1, 4, 0, 1, 0.00,60.00,Thursday
46,2780.82959564914
703,20.320484367567958
704,18.83117901677597
705,18.84705190055425
706,18.85669467242443
707,18.863381607815687
1682,0.0
1724,76.56825000000002
1730,67.53999999999999
1736,70.79434999999998
1742,80.0
1932,0.0
2035,0.0
2,4, 1, 4, 0, 2, 0.00,60.00,Thursday
46,2780.82959564914
703,20.224501868492128
704,18.803415329217555
705,18.854580396681646
706,18.830585141434143
707,18.910264050277406
1682,0.0
1724,76.56825000000002
1730,67.53999999999999
1736,70.79434999999998
1742,80.0
1932,0.0
2035,0.0
2,4, 1, 4, 0, 3, 0.00,60.00,Thursday
46,2780.82959564914
703,20.182474396825957
704,18.77497122834226
705,18.922694096062299
706,18.802690938564927
707,18.85928668903495
1682,0.0
1724,76.56825000000002
1730,64.16299999999998
1736,70.79434999999998
1742,68.0
1932,0.0
2035,0.0
2,4, 1, 4, 0, 4, 0.00,60.00,Thursday
46,2780.82959564914
703,20.142132829024555
704,18.814538102465297
705,18.8943320891715
706,18.845325432671286
707,18.91736536689435
1682,0.0
1724,76.56825000000002
1730,60.78599999999999
1736,70.79434999999998
1742,60.0
1932,0.0
2035,0.0
2,4, 1, 4, 0, 5, 0.00,60.00,Thursday
46,2780.82959564914
703,20.10093004291465
704,18.94542774333923
705,18.943738357763825
706,18.96657240934072
707,18.810099906321115
1682,0.0
1724,68.91142500000002
1730,60.78599999999999
1736,70.79434999999998
1742,80.0
1932,0.0
2035,0.0
2,4, 1, 4, 0, 6, 0.00,60.00,Thursday
46,3119.6039812842798
703,20.07184597810106
704,18.93337573572926
705,18.93888838009921
706,18.87710905841568
707,18.90607245375939
1682,0.0
1724,76.56825000000002
1730,57.40899999999999
1736,63.71491499999998
1742,64.0
1932,0.0
2035,0.0
2,4, 1, 4, 0, 7, 0.00,60.00,Thursday
46,4245.451607531919
703,19.12022133876136
704,18.571351092996097
705,18.4841297801264
706,18.651771837796365
707,18.409756802341048
1682,114.53607
1724,76.56825000000002
1730,67.53999999999999
1736,70.79434999999998
1742,80.0
1932,0.0
2035,0.0
2,4, 1, 4, 0, 8, 0.00,60.00,Thursday
46,6049.250893545528
703,19.020362465567769
704,18.73871547771782
705,18.924319651364148
706,18.90171378556383
707,18.798637619415623
1682,38.17869
1724,61.25460000000002
1730,33.769999999999999
1736,70.79434999999998
1742,64.0
1932,0.0
2035,0.0
2,4, 1, 4, 0, 9, 0.00,60.00,Thursday
46,18101.736647504957
703,19.785208172154559
704,19.314113232092998
705,19.544486034859859
706,19.509171169015148
707,19.12583223175431
1682,0.0
1724,2.5522750000000005
1730,1.1256666666666669
1736,1.1799058333333333
1742,4.0
1932,0.0
2035,0.0
2,4, 1, 4, 0,10, 0.00,60.00,Thursday
46,18101.736647504957
703,20.173497723504334
704,19.36889213861634
705,20.23713861858706
706,20.323687472851149
707,19.153869703911988
1682,0.0
1724,0.0
1730,0.0
1736,0.0
1742,0.0
1932,0.0
2035,0.0
2,4, 1, 4, 0,11, 0.00,60.00,Thursday
46,18265.019990212222
703,20.415921848693569
704,19.63169006908747
705,20.48733105294297
706,21.559218417940835
707,19.436534822535444
1682,0.0
1724,65.08301250000003
1730,0.0
1736,0.0
1742,0.0
1932,2908.549514624482
2035,2231.9326519999997
2,4, 1, 4, 0,12, 0.00,60.00,Thursday
46,18101.736647504957
703,20.646208503262334
704,19.93124830759153
705,20.4452822473844
706,22.563158846016614
707,19.76904834843733
1682,0.0
1724,76.56825000000002
1730,0.0
1736,0.0
1742,0.0
1932,4216.2522449929
2035,2625.803119999999
2,4, 1, 4, 0,13, 0.00,60.00,Thursday
46,14572.507325244462
703,20.532642358672665
704,19.91974875363708
705,20.43472983010553
706,23.082132665212879
707,19.81081716247304
1682,0.0
1724,76.56825000000002
1730,0.0
1736,0.0
1742,0.0
1932,4671.462185016642
2035,2625.803119999999
2,4, 1, 4, 0,14, 0.00,60.00,Thursday
46,18101.736647504957
703,20.896893189587705
704,20.254561833767317
705,20.683599110131195
706,23.829053334677466
707,20.046284383057406
1682,63.631150000000008
1724,76.56825000000002
1730,0.0
1736,0.0
1742,0.0
1932,6708.955818021806
2035,2625.803119999999
2,4, 1, 4, 0,15, 0.00,60.00,Thursday
46,18265.019990212222
703,21.083467777854485
704,20.44482460052071
705,20.825690647327197
706,23.999094171049749
707,20.74784703785549
1682,254.52460000000003
1724,76.56825000000002
1730,0.0
1736,0.0
1742,20.0
1932,11751.72993011981
2035,2625.803119999999
2,4, 1, 4, 0,16, 0.00,60.00,Thursday
46,18101.736647504957
703,21.068733714663
704,20.502573742430429
705,20.824591128104485
706,23.873914590330537
707,22.121128541924315
1682,254.52460000000003
1724,76.56825000000002
1730,0.0
1736,0.0
1742,80.0
1932,12897.155865902834
2035,2625.803119999999
2,4, 1, 4, 0,17, 0.00,60.00,Thursday
46,18101.736647504957
703,21.059648428786909
704,20.496474542472627
705,20.73850247752562
706,23.183235070044185
707,22.934184657986614
1682,254.52460000000003
1724,76.56825000000002
1730,0.0
1736,0.0
1742,80.0
1932,12897.155865902834
2035,2625.803119999999
2,4, 1, 4, 0,18, 0.00,60.00,Thursday
46,8609.530172617446
703,20.34968592123735
704,19.82171005601661
705,20.01563802760214
706,21.495305052526665
707,21.452280260415337
1682,8.484153333333334
1724,61.25460000000002
1730,0.0
1736,0.0
1742,52.0
1932,4396.816608633767
2035,2100.6424959999997
2,4, 1, 4, 0,19, 0.00,60.00,Thursday
46,5413.9869089617409
703,19.675830290651466
704,19.142371617087755
705,19.28453814859729
706,20.108516941226236
707,19.54643286722996
1682,0.0
1724,0.0
1730,0.0
1736,14.158869999999999
1742,0.0
1932,0.0
2035,0.0
2,4, 1, 4, 0,20, 0.00,60.00,Thursday
46,5413.986908961739
703,19.37740496514011
704,18.78983405110617
705,18.84464546947258
706,19.41303308534145
707,18.896356690708147
1682,0.0
1724,0.0
1730,64.16299999999998
1736,70.79434999999998
1742,64.0
1932,0.0
2035,0.0
2,4, 1, 4, 0,21, 0.00,60.00,Thursday
46,4829.719258246828
703,19.19671952319491
704,18.676505009142486
705,18.70641924708144
706,19.0270265878293
707,18.7585451486585
1682,0.0
1724,30.62730000000001
1730,67.53999999999999
1736,70.79434999999998
1742,80.0
1932,0.0
2035,0.0
2,4, 1, 4, 0,22, 0.00,60.00,Thursday
46,4829.719258246828
703,19.07421519682189
704,18.643220291181288
705,18.692388392755679
706,18.896352299447377
707,18.728079974734834
1682,0.0
1724,76.56825000000002
1730,67.53999999999999
1736,70.79434999999998
1742,80.0
1932,0.0
2035,0.0
2,4, 1, 4, 0,23, 0.00,60.00,Thursday
46,3927.819615240021
703,19.928230738719159
704,19.101089254122326
705,19.204819909474005
706,19.358061873715294
707,19.29820675170721
1682,0.0
1724,7.656825
1730,10.131
1736,14.158869999999999
1742,8.0
1932,0.0
2035,0.0
2,4, 1, 4, 0,24, 0.00,60.00,Thursday
46,3635.6857898825685
703,20.183881063003459
704,19.064522197560007
705,19.111734600403794
706,19.39181546267564
707,19.22654337080342
1682,0.0
1724,0.0
1730,0.0
1736,10.619152499999999
1742,0.0
1932,0.0
2035,0.0
2,5, 1, 5, 0, 1, 0.00,60.00,Friday
46,2780.82959564914
703,20.057733196073138
704,18.898019050775486
705,18.897671724786656
706,19.113600255878933
707,18.97090025368941
1682,0.0
1724,3.8284125
1730,64.16299999999998
1736,70.79434999999998
1742,60.0
1932,0.0
2035,0.0
2,5, 1, 5, 0, 2, 0.00,60.00,Friday
46,2780.82959564914
703,19.945630075639444
704,18.88583568649927
705,18.903650782123923
706,18.946826443075304
707,18.963293507971224
1682,0.0
1724,76.56825000000002
1730,67.53999999999999
1736,70.79434999999998
1742,80.0
1932,0.0
2035,0.0
2,5, 1, 5, 0, 3, 0.00,60.00,Friday
46,2780.82959564914
703,19.870799481398629
704,18.882526079967016
705,18.92862568268955
706,18.948756393902234
707,18.982450491224318
1682,0.0
1724,76.56825000000002
1730,67.53999999999999
1736,70.79434999999998
1742,72.0
1932,0.0
2035,0.0
2,5, 1, 5, 0, 4, 0.00,60.00,Friday
46,2780.82959564914
703,19.809295663805963
704,18.899318204922474
705,18.977886716603878
706,18.957234355924606
707,18.927959336301883
1682,0.0
1724,76.56825000000002
1730,60.78599999999999
1736,70.79434999999998
1742,80.0
1932,0.0
2035,0.0
2,5, 1, 5, 0, 5, 0.00,60.00,Friday
46,2780.82959564914
703,19.75624382344241
704,18.91483649304577
705,18.90153906642316
706,18.957240904508667
707,18.97142887576093
1682,0.0
1724,76.56825000000002
1730,67.53999999999999
1736,70.79434999999998
1742,72.0
1932,0.0
2035,0.0
2,5, 1, 5, 0, 6, 0.00,60.00,Friday
46,3119.6039812842798
703,19.72027141162318
704,18.926600587632465
705,18.923320078798377
706,18.949648395724407
707,18.873612649647045
1682,0.0
1724,76.56825000000002
1730,67.53999999999999
1736,70.79434999999998
1742,76.0
1932,0.0
2035,0.0
2,5, 1, 5, 0, 7, 0.00,60.00,Friday
46,4245.45160753192
703,18.865069628356417
704,18.389615776180503
705,18.685058104750703
706,18.421470154775798
707,18.339256072095666
1682,203.61968000000008
1724,76.56825000000002
1730,57.40899999999999
1736,70.79434999999998
1742,80.0
1932,0.0
2035,0.0
2,5, 1, 5, 0, 8, 0.00,60.00,Friday
46,6049.250893545528
703,18.896637056550767
704,18.72344830555363
705,19.198919018386044
706,18.75097367881706
707,18.758434196480619
1682,254.52460000000003
1724,61.25460000000002
1730,20.262000000000005
1736,60.17519749999999
1742,64.0
1932,0.0
2035,0.0
2,5, 1, 5, 0, 9, 0.00,60.00,Friday
46,18101.736647504957
703,19.81812804848157
704,19.146177448559738
705,21.18105045496094
706,20.270322546844349